37
 energy: -40.566352016458 gnorm: 10.439744679741 xtb: 6.5.1 (579679a)
C           -1.43261773000000       -1.21881717000000       -1.90414198000000
C           -1.02375121000000       -0.65320896000000       -0.52971215000000
C           -0.66362537000000       -1.81330201000000        0.40784685000000
C           -2.17574023000000        0.17171789000000       -0.00290044000000
C           -3.39058054000000       -0.23697982000000        0.52966227000000
C           -4.31076769000000        0.74174626000000        0.91020099000000
C           -4.01394216000000        2.10264759000000        0.74356059000000
C           -2.78967357000000        2.50113647000000        0.20133388000000
C           -1.87258701000000        1.52593353000000       -0.14735667000000
N           -0.61297304000000        1.76629193000000       -0.74825110000000
C            0.09832227000000        0.47777728000000       -0.60173387000000
C            1.00767754000000        0.39598124000000       -1.80581045000000
C            2.30764546000000        0.09401370000000       -1.73387241000000
C            2.86436054000000       -0.15338088000000       -0.41503393000000
C            4.17788604000000       -0.60805688000000       -0.26041758000000
C            4.70577551000000       -0.80753078000000        1.01736244000000
C            3.92701472000000       -0.54500363000000        2.14369780000000
C            2.61862166000000       -0.08632361000000        1.99308383000000
C            2.08645153000000        0.10025189000000        0.71674490000000
O            0.80128305000000        0.56239292000000        0.65886662000000
H           -2.29864971000000       -1.88633418000000       -1.81649391000000
H           -1.71231739000000       -0.42689703000000       -2.60896839000000
H           -0.61964355000000       -1.80169246000000       -2.35099274000000
H           -1.46002545000000       -2.56641278000000        0.43472284000000
H            0.25012450000000       -2.31627638000000        0.07350447000000
H           -0.51447581000000       -1.47891914000000        1.44057485000000
H           -3.63214249000000       -1.28875120000000        0.64165647000000
H           -5.27046851000000        0.44797336000000        1.32845535000000
H           -4.74598182000000        2.85322120000000        1.03068982000000
H           -2.56748642000000        3.55242932000000        0.05483850000000
H           -0.11691651000000        2.49122263000000       -0.23765980000000
H            0.56249146000000        0.60101077000000       -2.77502871000000
H            2.93831346000000        0.03987433000000       -2.61292534000000
H            4.80097476000000       -0.80663764000000       -1.12885698000000
H            5.72715827000000       -1.16135481000000        1.13369684000000
H            4.33906814000000       -0.69357112000000        3.13847437000000
H            2.01119730000000        0.12382816000000        2.86934926000000
37
 energy: -47.485058360220 gnorm: 7.148391045809 xtb: 6.5.1 (579679a)
C           -1.43248124988033       -1.21881654911928       -1.90439633721791
C           -1.02393443715404       -0.65311430394086       -0.52962829742431
C           -0.66347398171725       -1.81341467297295        0.40796300482889
C           -2.17583386841814        0.17169816490541       -0.00283080646142
C           -3.39052607818956       -0.23664125619409        0.52960112996959
C           -4.31060105198550        0.74206520440715        0.91012675784704
C           -4.01381730345932        2.10224685645652        0.74351056607726
C           -2.79008753349562        2.50114158361785        0.20155048769657
C           -1.87276424868897        1.52622432478332       -0.14755940130788
N           -0.61346602781683        1.76540618993387       -0.74737560674019
C           -0.04407548346084        0.46015757414913       -0.86004440344207
C            1.00791918637197        0.39565995592908       -1.80612002280080
C            2.30718598533909        0.09407359799444       -1.73351582691403
C            2.86492843226461       -0.15353535041815       -0.41533636245551
C            4.17799695368855       -0.60809584932032       -0.25986356340301
C            4.70561905745048       -0.80748611691560        1.01718509577023
C            3.92688898334382       -0.54493651257153        2.14342245290978
C            2.61894146696730       -0.08643992576356        1.99313818726060
C            2.08615916622842        0.10031341484194        0.71716922530841
O            0.94412588612805        0.57994336598222        0.91618991947751
H           -2.29847973074000       -1.88614525374362       -1.81632615621214
H           -1.71223130540443       -0.42695014189818       -2.60874076806200
H           -0.61970845071390       -1.80156263005243       -2.35089259769987
H           -1.45994336899346       -2.56617939779401        0.43458459718763
H            0.25002843374204       -2.31615782905578        0.07351224268433
H           -0.51445290791834       -1.47885045120834        1.44033578238949
H           -3.63207284967103       -1.28859854903285        0.64165280821422
H           -5.27027759233139        0.44803660306600        1.32840813204494
H           -4.74583723224580        2.85307806033821        1.03067032409746
H           -2.56748793260936        3.55230928438516        0.05491083964856
H           -0.11685503979979        2.49128967035013       -0.23790221510739
H            0.56235960135019        0.60103906093765       -2.77472480621771
H            2.93826071303259        0.03989408917194       -2.61277057422623
H            4.80077170669727       -0.80657804614179       -1.12876821545842
H            5.72696913569792       -1.16130711035377        1.13364295228593
H            4.33898434983266       -0.69356084970464        3.13826819248348
H            2.01126861655896        0.12379378495176        2.86911975296898
37
 energy: -51.705797929248 gnorm: 4.105929736094 xtb: 6.5.1 (579679a)
C           -1.43315739749604       -1.21975198333944       -1.90515262621903
C           -1.02561046868287       -0.65280903609349       -0.53088201165932
C           -0.66269107656945       -1.81335467669557        0.40812120444187
C           -2.17605182863710        0.17162390027289       -0.00262030085839
C           -3.39050909916093       -0.23612617009410        0.52958702180789
C           -4.31031306344668        0.74253646418144        0.90998515816326
C           -4.01365704549606        2.10166521372435        0.74345484486944
C           -2.79068425202474        2.50118959045036        0.20192952430366
C           -1.87346626004340        1.52676004085757       -0.14752675795447
N           -0.61540887483986        1.76236599234020       -0.74687401294595
C           -0.18137280494205        0.44665304978379       -1.10520069567804
C            1.00893263147370        0.39503678094979       -1.80988409726212
C            2.30705658097989        0.09372404453464       -1.73186488270219
C            2.86533775181887       -0.15366795350150       -0.41698291693937
C            4.17832741223722       -0.60827128150499       -0.25861114257930
C            4.70558419707200       -0.80747381601370        1.01644997986963
C            3.92623054791488       -0.54467769680741        2.14347538314104
C            2.62399754025719       -0.08835360468259        1.99498293086825
C            2.08971486209010        0.09950182175360        0.72056710293869
O            1.07528220176572        0.59871904344554        1.16276949089367
H           -2.29826715437740       -1.88594773703619       -1.81618890188972
H           -1.71215464241614       -0.42707794325792       -2.60841636011730
H           -0.61980069229821       -1.80133218403661       -2.35067249761554
H           -1.45986436332076       -2.56567342052870        0.43424892795410
H            0.24986003822616       -2.31591013971869        0.07356963484746
H           -0.51437034968272       -1.47864466087587        1.43982994854095
H           -3.63195451776314       -1.28830885955549        0.64165074992613
H           -5.26993074824879        0.44815608176448        1.32829904652285
H           -4.74557475852167        2.85280801476750        1.03060345411972
H           -2.56751586686804        3.55210147437474        0.05502331730934
H           -0.11625230050491        2.49073036419560       -0.23891088235525
H            0.56280120174504        0.60124555089983       -2.77565073155177
H            2.93803835477122        0.04010248214975       -2.61249052810223
H            4.80042074684986       -0.80649853084371       -1.12861356072135
H            5.72667765769839       -1.16120776891914        1.13356112408814
H            4.33895055356712       -0.69359482137070        3.13799648970994
H            2.01139528687359        0.12376236442974        2.86860406283530
37
 energy: -53.493790028879 gnorm: 1.625990293217 xtb: 6.5.1 (579679a)
C           -1.43517086871531       -1.22212539553266       -1.90666440123329
C           -1.02881388158213       -0.65207568417971       -0.53363117769247
C           -0.66113590047142       -1.81302585083792        0.40823394586884
C           -2.17630954796580        0.17131633375135       -0.00223205786828
C           -3.39050602701221       -0.23537003929148        0.52968796647081
C           -4.30988830074982        0.74313516660626        0.90985734622693
C           -4.01335873641561        2.10094706159000        0.74345918561107
C           -2.79165392571794        2.50137203296070        0.20270294530328
C           -1.87406053620849        1.52763683869739       -0.14739418965199
N           -0.61932796407299        1.75666069817462       -0.74725456105138
C           -0.29070329202113        0.43486415823669       -1.31150790089802
C            1.00990606437594        0.39429865124234       -1.81661132404551
C            2.30776821747515        0.09255752800839       -1.72878761603452
C            2.86428137224834       -0.15348913712865       -0.42035946177339
C            4.17950349649069       -0.60883005551213       -0.25629667129280
C            4.70581001591322       -0.80761158659912        1.01431969644794
C            3.92532672066233       -0.54456609956450        2.14453771188286
C            2.63774828801250       -0.09430371468631        1.99978332749536
C            2.09784313494692        0.09723709846434        0.72567257711851
O            1.16697536095934        0.62500217244479        1.37459312386475
H           -2.29822033144345       -1.88585128994169       -1.81615506741532
H           -1.71229641076296       -0.42737341832912       -2.60808798660452
H           -0.61994199638663       -1.80097134795620       -2.35034211293141
H           -1.45977101723038       -2.56482350851999        0.43365698577419
H            0.24965305102082       -2.31556073927791        0.07362995082669
H           -0.51418067076698       -1.47824916397761        1.43905833646324
H           -3.63177534835013       -1.28784179255207        0.64167683628262
H           -5.26937664813965        0.44835154588991        1.32818755610823
H           -4.74514794720892        2.85238784772027        1.03058007420267
H           -2.56755873973193        3.55180194396452        0.05526763301323
H           -0.11517453696964        2.48940626626116       -0.24097611760021
H            0.56445515846277        0.60226352161111       -2.77884520945899
H            2.93763569582465        0.04055458049462       -2.61207826210054
H            4.79983193832912       -0.80635991572540       -1.12842288464436
H            5.72629170316556       -1.16105537628697        1.13333858030855
H            4.33913955057624       -0.69373394131198        3.13763889347228
H            2.01220285945991        0.12342460109295        2.86793081955496
37
 energy: -53.827632565207 gnorm: 0.263450988351 xtb: 6.5.1 (579679a)
C           -1.43906664783941       -1.22622919417771       -1.90898851172697
C           -1.03327127886679       -0.65160099954685       -0.53850361356609
C           -0.65905273061265       -1.81221235850280        0.40799884919443
C           -2.17665666670996        0.17091060965084       -0.00167002656071
C           -3.39044458977760       -0.23434887786104        0.52983867926251
C           -4.30932001067612        0.74390156885537        0.90993257731988
C           -4.01290742577699        2.10006508018223        0.74395442431243
C           -2.79276470075358        2.50168151061374        0.20427248531905
C           -1.87418063505967        1.52856637847494       -0.14696608008530
N           -0.62373217475772        1.74764030020854       -0.74858963981184
C           -0.33972859946106        0.40783405027923       -1.43340887184085
C            1.01125101416100        0.39362727251022       -1.82590717544367
C            2.30654129298466        0.09168809222144       -1.72671293209160
C            2.86172757551924       -0.15229398064948       -0.42121165739553
C            4.18110914558446       -0.60957599810243       -0.25398146395497
C            4.70606471485632       -0.80790870355093        1.01167001734897
C            3.92716871247341       -0.54504705743974        2.14574313842794
C            2.65414933631975       -0.10526638118450        2.00649532423826
C            2.10266509328817        0.09484050922340        0.73104813453958
O            1.19759488647096        0.67755177229254        1.50646827742790
H           -2.29871597759601       -1.88582275834954       -1.81656981487247
H           -1.71292390196910       -0.42759736789989       -2.60791362590867
H           -0.62022871100737       -1.80013600440728       -2.35023093631739
H           -1.45969572510215       -2.56364182484233        0.43244403955616
H            0.24939887427044       -2.31520793177549        0.07325795544399
H           -0.51396573681260       -1.47798248825817        1.43788990590322
H           -3.63158600650919       -1.28718159074486        0.64155537146490
H           -5.26860739302142        0.44859004286340        1.32820730831834
H           -4.74447001048514        2.85182148664542        1.03112072199450
H           -2.56749166855814        3.55152555198742        0.05626681067828
H           -0.11331349494247        2.48686940878402       -0.24315578440397
H            0.56824708463864        0.60463660029837       -2.78458167730645
H            2.93727872462507        0.04115183187923       -2.61143632843821
H            4.79890981948112       -0.80609986496561       -1.12829100924447
H            5.72559127356581       -1.16145771771773        1.13268354955900
H            4.33949146081269       -0.69419299457047        3.13697356209669
H            2.01493507724341        0.12090201757649        2.86846450656313
37
 energy: -53.834942909081 gnorm: 0.302897086423 xtb: 6.5.1 (579679a)
C           -1.44209827922379       -1.22672226706653       -1.91392251863734
C           -1.04264664030127       -0.65738128276899       -0.54312479757834
C           -0.65840499734114       -1.81218802484137        0.40433950585621
C           -2.17729037094767        0.17121713214705       -0.00201293835675
C           -3.39077129411478       -0.23355489878860        0.52773666561977
C           -4.30921255419821        0.74409900870200        0.90899224797236
C           -4.01240278781266        2.09928012988034        0.74578622268390
C           -2.79290095141088        2.50243754018903        0.20822596769531
C           -1.87339254720687        1.52991054381366       -0.14538276174410
N           -0.62432828889444        1.73359713972962       -0.74710948908445
C           -0.40057746075022        0.23077077254751       -1.40409310824986
C            1.00958804799068        0.39345513898640       -1.82877961738983
C            2.30597042733617        0.09397353300211       -1.72415015846228
C            2.85957223354463       -0.15203255190981       -0.41904114990639
C            4.18204167010635       -0.61112418949642       -0.25122228582540
C            4.70556997149558       -0.81103792236231        1.01105181404428
C            3.92933435939175       -0.55080774587511        2.14784906037214
C            2.66166824714311       -0.11691764849206        2.01177140847960
C            2.10338005479584        0.09553713682725        0.73772078447024
O            1.25766887131890        0.89133825834357        1.48353586749099
H           -2.29910417238212       -1.88256828479184       -1.82141787143584
H           -1.71245901072032       -0.42319977556584       -2.60957037073678
H           -0.61972177126377       -1.79549553750481       -2.35353685430893
H           -1.46051152559837       -2.56302614174638        0.42641807345258
H            0.24862288010240       -2.31517150531007        0.06916077042820
H           -0.51493869522089       -1.47997900853535        1.43423835373189
H           -3.63214297428513       -1.28672762866349        0.63736707187381
H           -5.26857606347381        0.44798472546026        1.32616835456777
H           -4.74370615186068        2.85090838242236        1.03381430948346
H           -2.56651107959309        3.55192977726623        0.06168199925497
H           -0.11082229869086        2.48368075183994       -0.24150057062426
H            0.57356918066232        0.61121059164580       -2.78864081171282
H            2.93845511586697        0.04542554186869       -2.60912557445335
H            4.79847428988791       -0.80533168921245       -1.12694317503810
H            5.72411577505453       -1.16525056363839        1.13324268918475
H            4.33799958630387       -0.70104949531558        3.13766519222039
H            2.01648920428996        0.11281004721357        2.87097418466220
37
 energy: -53.850931999559 gnorm: 0.327343743841 xtb: 6.5.1 (579679a)
C           -1.45026050393065       -1.23898915064429       -1.91580424149517
C           -1.04559315865231       -0.65421056769517       -0.54916178676577
C           -0.65454938316192       -1.80967488885957        0.40695135598218
C           -2.17801373080141        0.17000144844914       -0.00038949328544
C           -3.39022262610001       -0.23217760842325        0.53020350260956
C           -4.30816637438191        0.74554795174238        0.91015335383370
C           -4.01195120920465        2.09818341389196        0.74490347519506
C           -2.79529430016690        2.50245120729363        0.20773722967967
C           -1.87269560443981        1.52959597801253       -0.14716836189081
N           -0.63619054945680        1.72977105398523       -0.75431148177405
C           -0.32693758504259        0.39284228930549       -1.47202441036417
C            1.00900574960090        0.39070714969031       -1.84823506028521
C            2.30257518004925        0.08962127631537       -1.72310939087152
C            2.85428852823687       -0.14880228534359       -0.41891259146424
C            4.18391324760880       -0.61147171870158       -0.24931130217472
C            4.70699627308200       -0.80791814497508        1.00659159891790
C            3.93861347057546       -0.54754586719777        2.14864597988963
C            2.67898131663270       -0.12921540086258        2.01863255212570
C            2.10220520966435        0.09797153213203        0.75314980447425
O            1.17073926089257        0.75406608202522        1.56755845874468
H           -2.30146890209662       -1.88766732472646       -1.81746398240113
H           -1.71574454086497       -0.42971364648917       -2.60816963136996
H           -0.62096052668168       -1.79905759983612       -2.34980686456668
H           -1.45915926246265       -2.56057041270568        0.43001988651222
H            0.24922666496753       -2.31440131072597        0.07263713573512
H           -0.51333277190615       -1.47685145235155        1.43537948536828
H           -3.63111877641507       -1.28550229533348        0.64151672190862
H           -5.26669543667405        0.44925382833291        1.32815443231573
H           -4.74291367072368        2.85037871164584        1.03189316125244
H           -2.56750025257432        3.55080544901160        0.05813248553722
H           -0.10958554687500        2.47841161534411       -0.25051321433111
H            0.57991620140358        0.61103423551455       -2.80153336405830
H            2.93667945688224        0.04279301623199       -2.60930454019377
H            4.79641640688797       -0.80553882918003       -1.12767788462245
H            5.72396987775203       -1.16201962747626        1.13121732724781
H            4.34077381289918       -0.69464254024461        3.13577911310810
H            2.02405405547774        0.11253442284792        2.87180703147664
37
 energy: -53.871096198989 gnorm: 0.180040116304 xtb: 6.5.1 (579679a)
C           -1.45389630493815       -1.24365066143286       -1.91878772030052
C           -1.05106306542088       -0.65682800962115       -0.55192456147366
C           -0.65331433129120       -1.80873566366546        0.40636958733541
C           -2.17884354737352        0.16967634895184       -0.00031827218353
C           -3.39031662484085       -0.23163609049294        0.52990237831200
C           -4.30798735609758        0.74589695212703        0.90957912563101
C           -4.01187600402778        2.09761193612055        0.74448464729292
C           -2.79604308994376        2.50259815810614        0.20822951888487
C           -1.87266429174765        1.52961004882377       -0.14765405151894
N           -0.64149618968548        1.72562674101136       -0.75691270571254
C           -0.34248319974643        0.41222655797045       -1.43922207636188
C            1.00581168846280        0.38927112085195       -1.85440230897734
C            2.30145981601445        0.08849068669535       -1.72123322196269
C            2.85205732885658       -0.14750237781153       -0.41708892042177
C            4.18408750355844       -0.61176345718421       -0.24753114354926
C            4.70762407953180       -0.80768440316124        1.00602581839860
C            3.94401325229995       -0.54875641083186        2.15031959508034
C            2.68367047539203       -0.13681532845914        2.02262070728193
C            2.10273106079904        0.10075965489003        0.76363694516095
O            1.18833197777244        0.75650882689898        1.54065928858304
H           -2.30282106958383       -1.88921089767357       -1.81798019379757
H           -1.71667306488703       -0.43110257872003       -2.60864035827995
H           -0.62085625402462       -1.79916834116823       -2.34961783587602
H           -1.45877170191639       -2.55935930877421        0.42921514182474
H            0.24940798157594       -2.31405595162874        0.07263812469319
H           -0.51319692408338       -1.47612645387403        1.43452643297978
H           -3.63100255587068       -1.28490546363482        0.64111393261741
H           -5.26618395603852        0.44944507829927        1.32729243078028
H           -4.74260189936116        2.84972952065383        1.03114502809869
H           -2.56768952601605        3.55045707591660        0.05807709061133
H           -0.10857933568252        2.47440900385407       -0.25421704806798
H            0.58486292072785        0.61356939348605       -2.80854516960058
H            2.93681719122039        0.04336720496638       -2.60783497939418
H            4.79563278388909       -0.80527298584155       -1.12662551172203
H            5.72338922152079       -1.16189062350829        1.13157008821946
H            4.34122868853002       -0.69440030895973        3.13641163833254
H            2.02723432242584        0.10961099681989        2.87288504908195
37
 energy: -53.906947033836 gnorm: 0.186973665838 xtb: 6.5.1 (579679a)
C           -1.47058167237235       -1.26374268007568       -1.93059064200410
C           -1.07236722878763       -0.66386209575229       -0.56757412768304
C           -0.64737967404815       -1.80433730977335        0.40400095890259
C           -2.18197184970694        0.16823498619762        0.00075877227420
C           -3.39052522005445       -0.22885991883803        0.52985643263012
C           -4.30673244344518        0.74779386875063        0.90865627800033
C           -4.01114113628138        2.09513303501925        0.74436241417562
C           -2.79914890968636        2.50331237250323        0.21174696752732
C           -1.87324430112228        1.52997866669678       -0.14828635467820
N           -0.66210256663177        1.70315796393673       -0.76785281105713
C           -0.36088624662730        0.45437970355736       -1.39898857911653
C            0.99591530022723        0.38376155648592       -1.88616771394354
C            2.29523242538085        0.08397532461646       -1.71418335293203
C            2.84109194608533       -0.14163064717164       -0.40988811996356
C            4.18521412739181       -0.61329717681706       -0.24072729672548
C            4.71065794704013       -0.80717564642672        1.00110159552858
C            3.96697861451601       -0.55383969025512        2.15623622420626
C            2.71181613608271       -0.17286807749205        2.04142550944418
C            2.10244957833683        0.11097756114719        0.80621156032194
O            1.20285744838832        0.81127725093960        1.53192888396338
H           -2.30909710511698       -1.89531814243661       -1.81964932396853
H           -1.72126982828199       -0.43658836399822       -2.60985345269634
H           -0.62132130202676       -1.79903513945403       -2.34867674957008
H           -1.45718774757883       -2.55391321389888        0.42578331644697
H            0.24995804615924       -2.31257559529425        0.07229271509707
H           -0.51218866775215       -1.47315558665295        1.43076323494453
H           -3.63031322869513       -1.28208806924183        0.64049690170914
H           -5.26341849040737        0.45051050934365        1.32546906611804
H           -4.74063938174059        2.84708602306960        1.02993832549253
H           -2.56823873956609        3.54909165338462        0.05918155173204
H           -0.10385696393120        2.45747698491675       -0.26992275336503
H            0.60549833052072        0.62439532972810       -2.83937646630676
H            2.93641458430915        0.04564026104191       -2.60251593929224
H            4.79170366427547       -0.80426562940857       -1.12382165904594
H            5.72111996236052       -1.16189887926818        1.13090781661682
H            4.34422625025017       -0.69395770236170        3.13747218632371
H            2.04247834253639        0.09622650328171        2.87765112089316
37
 energy: -53.946084478472 gnorm: 0.235382401941 xtb: 6.5.1 (579679a)
C           -1.49765583116003       -1.29502266748612       -1.95096930872699
C           -1.10900190384357       -0.67591211521855       -0.59528265933013
C           -0.63845592354166       -1.79668379665369        0.39839290415104
C           -2.18782920569323        0.16589854094365        0.00233161204470
C           -3.39135437801184       -0.22439925369449        0.52990051720895
C           -4.30476553153004        0.75062615517478        0.90742703548035
C           -4.01007811783507        2.09144752187878        0.74513841025115
C           -2.80317759224588        2.50440205750076        0.21839956908220
C           -1.87749180367259        1.53014509771130       -0.14732096703347
N           -0.69344434673281        1.66478629286449       -0.78525158919375
C           -0.39087623855177        0.47412065590681       -1.34739115535171
C            0.97729047170632        0.37492475967637       -1.93904421683112
C            2.28353491915232        0.07679571876534       -1.70177379708060
C            2.82225515910395       -0.13165844776973       -0.39544587146408
C            4.18453156378636       -0.61515233440903       -0.23061051597410
C            4.71721202446442       -0.80753508736911        0.99331118464313
C            4.00801759534812       -0.56479248143855        2.16600928867299
C            2.75585237940242       -0.23530523211209        2.07432244065310
C            2.10023084622460        0.13073712478824        0.87924430715387
O            1.23307125064843        0.95850571167601        1.53249581964167
H           -2.32178936760127       -1.90650517669530       -1.82357043960500
H           -1.72928299406913       -0.44531246576130       -2.61232108180299
H           -0.62230987553336       -1.79810001118681       -2.34797244690619
H           -1.45434841290899       -2.54431707421726        0.41872318741145
H            0.25110783961890       -2.31000484824615        0.07049509618359
H           -0.51045983501600       -1.46814695410012        1.42361095063408
H           -3.62928610574588       -1.27709009822261        0.63878019879819
H           -5.25870334124154        0.45226347595014        1.32233491459265
H           -4.73710363961480        2.84246502712359        1.02891617990571
H           -2.56896391642384        3.54702733993757        0.06254949070557
H           -0.09622072334099        2.42671807614259       -0.29764811834900
H            0.64112324604554        0.64447952619487       -2.89374555627382
H            2.93554873743166        0.05020298585704       -2.59247893183612
H            4.78467891136343       -0.80244432570480       -1.11909973981169
H            5.71778789424560       -1.16308818300612        1.12912961146416
H            4.35082498348710       -0.69529182473670        3.14068244740683
H            2.06953126228512        0.07121629993617        2.88589771948538
37
 energy: -53.963396998638 gnorm: 0.209620517575 xtb: 6.5.1 (579679a)
C           -1.51206649142932       -1.31001622068670       -1.96443267217533
C           -1.13242952859652       -0.68479608648061       -0.61208822300252
C           -0.63512198011325       -1.79191183885882        0.39254987301058
C           -2.19269669906110        0.16454571441918        0.00283766397668