37
 energy: -54.151397160701 gnorm: 0.000198881629 xtb: 6.5.1 (579679a)
C           -0.75504523051759       -1.32404932729276       -1.18098070877888
C           -0.88922644068205       -0.13561105493269       -0.22069968033660
C           -0.33273889566544       -0.50333506796202        1.15823552399702
C           -2.33183315829649        0.29839858290111       -0.09896102560787
C           -3.43633245082552       -0.37201427247739        0.37377500612751
C           -4.66225715674326        0.28459078615122        0.38235837095957
C           -4.77325727754273        1.58902967197295       -0.07082959052242
C           -3.66914017273226        2.27661802400019       -0.55277674220210
C           -2.45662204572785        1.61195850691233       -0.56072730140305
N           -1.22433407382966        2.05007283192791       -0.99216932760479
C           -0.24919103813412        1.10456543323610       -0.83056273018949
C            0.99811016544877        1.28298869615462       -1.33601723656144
C            2.13865268563522        0.43653585157151       -1.30879048487401
C            2.78263949634434       -0.20498914392128       -0.27337400961843
C            3.70731040392135       -1.24473728417206       -0.60828222007613
C            4.36168515276687       -1.96811832442223        0.33013468220186
C            4.17082110597211       -1.67632595471350        1.70751776014128
C            3.39139865339355       -0.64326061754783        2.09087621646104
C            2.71268623603033        0.22563899423389        1.14280612689286
O            2.21264388603414        1.28846900556011        1.50526347075996
H           -1.25925462075995       -2.19278866338679       -0.76552364568700
H           -1.20349469675274       -1.08994540399188       -2.14468582697067
H            0.29466547753125       -1.56443956919428       -1.33158459249404
H           -1.04327418947021       -1.13941138672683        1.68142927647808
H            0.60813213015116       -1.03752271657397        1.05959543810389
H           -0.15785587441396        0.39053377645956        1.75090391203665
H           -3.36035734795368       -1.38810994566755        0.73113898275953
H           -5.53828408737788       -0.22837662211065        0.74909832937224
H           -5.73429320271799        2.08080262537353       -0.04984769821544
H           -3.75302872262381        3.29320215142697       -0.90581441473596
H           -1.04040627045327        2.97839808126511       -1.33526832242109
H            1.11312740146509        2.14519895043532       -1.98898420462913
H            2.60787094237411        0.32294646195236       -2.28636278496481
H            3.82163613451261       -1.48774743558427       -1.65701403987476
H            5.01977472573276       -2.77586946416585        0.04736042736428
H            4.67342020324317       -2.28868134549027        2.44363679878255
H            3.25565215266431       -0.39461484120083        3.13329275532838
