      -----------------------------------------------------------      
     |                   =====================                   |     
     |                           x T B                           |     
     |                   =====================                   |     
     |                         S. Grimme                         |     
     |          Mulliken Center for Theoretical Chemistry        |     
     |                    University of Bonn                     |     
      -----------------------------------------------------------      

   * xtb version 6.5.1 (579679a) compiled by 'ehlert@majestix' on 2022-07-11

   xtb is free software: you can redistribute it and/or modify it under
   the terms of the GNU Lesser General Public License as published by
   the Free Software Foundation, either version 3 of the License, or
   (at your option) any later version.
   
   xtb is distributed in the hope that it will be useful,
   but WITHOUT ANY WARRANTY; without even the implied warranty of
   MERCHANTABILITY or FITNESS FOR A PARTICULAR PURPOSE.  See the
   GNU Lesser General Public License for more details.
   
   Cite this work as:
   * C. Bannwarth, E. Caldeweyher, S. Ehlert, A. Hansen, P. Pracht,
     J. Seibert, S. Spicher, S. Grimme, WIREs Comput. Mol. Sci., 2020, 11,
     e01493. DOI: 10.1002/wcms.1493
   
   for GFN2-xTB:
   * C. Bannwarth, S. Ehlert and S. Grimme., J. Chem. Theory Comput., 2019,
     15, 1652-1671. DOI: 10.1021/acs.jctc.8b01176
   for GFN1-xTB:
   * S. Grimme, C. Bannwarth, P. Shushkov, J. Chem. Theory Comput., 2017,
     13, 1989-2009. DOI: 10.1021/acs.jctc.7b00118
   for GFN0-xTB:
   * P. Pracht, E. Caldeweyher, S. Ehlert, S. Grimme, ChemRxiv, 2019, preprint.
     DOI: 10.26434/chemrxiv.8326202.v1
   for GFN-FF:
   * S. Spicher and S. Grimme, Angew. Chem. Int. Ed., 2020, 59, 15665-15673.
     DOI: 10.1002/anie.202004239
   
   for ALPB and GBSA implicit solvation:
   * S. Ehlert, M. Stahn, S. Spicher, S. Grimme, J. Chem. Theory Comput.,
     2021, 17, 4250-4261. DOI: 10.1021/acs.jctc.1c00471
   
   for DFT-D4:
   * E. Caldeweyher, C. Bannwarth and S. Grimme, J. Chem. Phys., 2017,
     147, 034112. DOI: 10.1063/1.4993215
   * E. Caldeweyher, S. Ehlert, A. Hansen, H. Neugebauer, S. Spicher,
     C. Bannwarth and S. Grimme, J. Chem. Phys., 2019, 150, 154122.
     DOI: 10.1063/1.5090222
   * E. Caldeweyher, J.-M. Mewes, S. Ehlert and S. Grimme, Phys. Chem. Chem. Phys.
     2020, 22, 8499-8512. DOI: 10.1039/D0CP00502A
   
   for sTDA-xTB:
   * S. Grimme and C. Bannwarth, J. Chem. Phys., 2016, 145, 054103.
     DOI: 10.1063/1.4959605
   
   in the mass-spec context:
   * V. Asgeirsson, C. Bauer and S. Grimme, Chem. Sci., 2017, 8, 4879.
     DOI: 10.1039/c7sc00601b
   * J. Koopman and S. Grimme, ACS Omega 2019, 4, 12, 15120-15133.
     DOI: 10.1021/acsomega.9b02011
   
   for metadynamics refer to:
   * S. Grimme, J. Chem. Theory Comput., 2019, 155, 2847-2862
     DOI: 10.1021/acs.jctc.9b00143
   
   for SPH calculations refer to:
   * S. Spicher and S. Grimme, J. Chem. Theory Comput., 2021, 17, 1701-1714
     DOI: 10.1021/acs.jctc.0c01306
   
   with help from (in alphabetical order)
   P. Atkinson, C. Bannwarth, F. Bohle, G. Brandenburg, E. Caldeweyher
   M. Checinski, S. Dohm, S. Ehlert, S. Ehrlich, I. Gerasimov, C. Hölzer
   A. Katbashev, J. Koopman, C. Lavigne, S. Lehtola, F. März, M. Müller,
   F. Musil, H. Neugebauer, J. Pisarek, C. Plett, P. Pracht, F. Pultar,
   J. Seibert, P. Shushkov, S. Spicher, M. Stahn, M. Steiner, T. Strunk,
   J. Stückrath, T. Rose, and J. Unsleber
   
 * started run on 2026/05/06 at 06:43:09.059     

           -------------------------------------------------
          |                Calculation Setup                |
           -------------------------------------------------

          program call               : /storage/brno2/home/krupickm/bin/xtb --namespace input input.xyz --opt --gfn 2 --input xtb.inp
          calculation namespace      : input
          coordinate file            : input.xyz
          omp threads                :                     1

   ID    Z sym.   atoms
    1    6 C      1-9, 11-19
    2    7 N      10
    3    8 O      20
    4    1 H      21-37
constraining bond 11 20 to    3.4000000 Å, actual value:    1.4458311 Å

           -------------------------------------------------
          |                 G F N 2 - x T B                 |
           -------------------------------------------------

        Reference                      10.1021/acs.jctc.8b01176
      * Hamiltonian:
        H0-scaling (s, p, d)           1.850000    2.230000    2.230000
        zeta-weighting                 0.500000
      * Dispersion:
        s8                             2.700000
        a1                             0.520000
        a2                             5.000000
        s9                             5.000000
      * Repulsion:
        kExp                           1.500000    1.000000
        rExp                           1.000000
      * Coulomb:
        alpha                          2.000000
        third order                    shell-resolved
        anisotropic                    true
        a3                             3.000000
        a5                             4.000000
        cn-shift                       1.200000
        cn-exp                         4.000000
        max-rad                        5.000000

q/qsh data taken from xtbrestart
CAMM data taken from xtbrestart

          ...................................................
          :                      SETUP                      :
          :.................................................:
          :  # basis functions                  97          :
          :  # atomic orbitals                  97          :
          :  # shells                           57          :
          :  # electrons                       100          :
          :  max. iterations                   250          :
          :  Hamiltonian                  GFN2-xTB          :
          :  restarted?                       true          :
          :  GBSA solvation                  false          :
          :  PC potential                    false          :
          :  electronic temp.          300.0000000     K    :
          :  accuracy                    1.0000000          :
          :  -> integral cutoff          0.2500000E+02      :
          :  -> integral neglect         0.1000000E-07      :
          :  -> SCF convergence          0.1000000E-05 Eh   :
          :  -> wf. convergence          0.1000000E-03 e    :
          :  Broyden damping             0.4000000          :
          ...................................................

 iter      E             dE          RMSdq      gap      omega  full diag
   1    -55.0023605 -0.550024E+02  0.340E+00    2.77       0.0  T
   2    -55.0374320 -0.350715E-01  0.204E+00    3.12       1.0  T
   3    -55.0173422  0.200898E-01  0.143E+00    2.92       1.0  T
   4    -55.0533878 -0.360456E-01  0.300E-01    2.87       1.0  T
   5    -55.0559673 -0.257950E-02  0.678E-02    2.88       1.0  T
   6    -55.0560645 -0.972267E-04  0.247E-02    2.90       1.0  T
   7    -55.0560654 -0.918084E-06  0.139E-02    2.90       1.2  T
   8    -55.0560676 -0.214689E-05  0.498E-03    2.90       3.3  T
   9    -55.0560679 -0.358495E-06  0.167E-03    2.90       9.9  T
  10    -55.0560679 -0.326540E-07  0.865E-04    2.90      19.0  T
  11    -55.0560679 -0.314040E-08  0.346E-04    2.90      47.5  T

   *** convergence criteria satisfied after 11 iterations ***

         #    Occupation            Energy/Eh            Energy/eV
      -------------------------------------------------------------
         1        2.0000           -0.7144828             -19.4421
       ...           ...                  ...                  ...
        44        2.0000           -0.4225532             -11.4983
        45        2.0000           -0.4158264             -11.3152
        46        2.0000           -0.4107613             -11.1774
        47        2.0000           -0.3958928             -10.7728
        48        2.0000           -0.3918230             -10.6620
        49        2.0000           -0.3712473             -10.1022
        50        2.0000           -0.3624192              -9.8619 (HOMO)
        51                         -0.2557847              -6.9603 (LUMO)
        52                         -0.2212275              -6.0199
        53                         -0.2172134              -5.9107
        54                         -0.2083877              -5.6705
        55                         -0.1821038              -4.9553
       ...                                ...                  ...
        97                          0.6613516              17.9963
      -------------------------------------------------------------
                  HL-Gap            0.1066345 Eh            2.9017 eV
             Fermi-level           -0.3091020 Eh           -8.4111 eV

 SCC (total)                   0 d,  0 h,  0 min,  0.069 sec
 SCC setup                      ...        0 min,  0.000 sec (  0.471%)
 Dispersion                     ...        0 min,  0.001 sec (  0.932%)
 classical contributions        ...        0 min,  0.000 sec (  0.117%)
 integral evaluation            ...        0 min,  0.012 sec ( 17.897%)
 iterations                     ...        0 min,  0.029 sec ( 42.671%)
 molecular gradient             ...        0 min,  0.026 sec ( 37.405%)
 printout                       ...        0 min,  0.000 sec (  0.445%)

         :::::::::::::::::::::::::::::::::::::::::::::::::::::
         ::                     SUMMARY                     ::
         :::::::::::::::::::::::::::::::::::::::::::::::::::::
         :: total energy             -40.566352015033 Eh    ::
         :: gradient norm             10.439748056370 Eh/a0 ::
         :: HOMO-LUMO gap              2.901671533258 eV    ::
         ::.................................................::
         :: SCC energy               -55.056067945093 Eh    ::
         :: -> isotropic ES            0.027194809019 Eh    ::
         :: -> anisotropic ES          0.007543196028 Eh    ::
         :: -> anisotropic XC          0.029688309573 Eh    ::
         :: -> dispersion             -0.043173190727 Eh    ::
         :: repulsion energy           0.852128998090 Eh    ::
         :: add. restraining          13.637094064334 Eh    ::
         :: total charge              -0.000000000000 e     ::
         :::::::::::::::::::::::::::::::::::::::::::::::::::::

      ----------------------------------------------------------- 
     |                   =====================                   |
     |                        A N C O P T                        |
     |                   =====================                   |
     |               Approximate Normal Coordinate               |
     |                Rational Function Optimizer                |
      ----------------------------------------------------------- 

          ...................................................
          :                      SETUP                      :
          :.................................................:
          :   optimization level            normal          :
          :   max. optcycles                   200          :
          :   ANC micro-cycles                  20          :
          :   degrees of freedom               105          :
          :.................................................:
          :   RF solver                   davidson          :
          :   write xtbopt.log                true          :
          :   linear?                        false          :
          :   energy convergence         0.5000000E-05 Eh   :
          :   grad. convergence          0.1000000E-02 Eh/α :
          :   maximium RF displ.         1.0000000          :
          :   Hlow (freq-cutoff)         0.1000000E-01      :
          :   Hmax (freq-cutoff)         5.0000000          :
          :   S6 in model hess.         20.0000000          :
          ...................................................

generating ANC from model Hessian ...
Using Lindh-Hessian (1995)
 Shifting diagonal of input Hessian by    4.94815423453814     
 Lowest  eigenvalues of input Hessian
    0.010000    0.338577    0.000000    0.000000    0.000000    0.000000
    0.000000    0.000000    4.949116    4.949731    4.950298    4.950861
    4.952409    4.954445    4.955300    4.956901    4.957131    4.958137
 Highest eigenvalues
    6.830647    6.911571    6.937888    6.968031    6.975633   10.279979
 

........................................................................
.............................. CYCLE    1 ..............................
........................................................................
   1    -55.0560679 -0.550561E+02  0.126E-04    2.90       0.0  T
   2    -55.0560679 -0.169450E-09  0.796E-05    2.90     206.5  T
   3    -55.0560679 -0.115705E-09  0.478E-05    2.90     343.7  T
     SCC iter.                  ...        0 min,  0.009 sec
     gradient                   ...        0 min,  0.025 sec
 * total energy  :   -40.5663520 Eh     change       -0.1424795E-08 Eh
   gradient norm :    10.4397447 Eh/α   predicted     0.0000000E+00 (-100.00%)
   displ. norm   :     0.7888217 α      lambda       -0.8235032E+01
   maximum displ.:     0.7863764 α      in ANC's #27, #95, #89, ...

........................................................................
.............................. CYCLE    2 ..............................
........................................................................
   1    -54.9935213 -0.549935E+02  0.114E+00    2.24       0.0  T
   2    -55.0111828 -0.176615E-01  0.591E-01    1.96       1.0  T
   3    -55.0126957 -0.151293E-02  0.363E-01    2.07       1.0  T
   4    -55.0114798  0.121592E-02  0.250E-01    1.90       1.0  T
   5    -55.0140038 -0.252392E-02  0.445E-02    2.01       1.0  T
   6    -55.0140371 -0.333058E-04  0.272E-02    2.00       1.0  T
   7    -55.0140483 -0.112414E-04  0.134E-02    2.00       1.2  T
   8    -55.0140497 -0.143455E-05  0.642E-03    2.00       2.6  T
   9    -55.0140504 -0.638947E-06  0.247E-03    2.00       6.7  T
  10    -55.0140504 -0.653247E-07  0.920E-04    2.00      17.9  T
  11    -55.0140504 -0.571331E-08  0.369E-04    2.00      44.6  T
     SCC iter.                  ...        0 min,  0.026 sec
     gradient                   ...        0 min,  0.024 sec
 * total energy  :   -47.4850584 Eh     change       -0.6918706E+01 Eh
   gradient norm :     7.1483910 Eh/α   predicted    -0.6679605E+01 (  -3.46%)
   displ. norm   :     0.7501995 α      lambda       -0.5361479E+01
   maximum displ.:     0.7463908 α      in ANC's #27, #95, #89, ...

........................................................................
.............................. CYCLE    3 ..............................
........................................................................
   1    -54.9047508 -0.549048E+02  0.794E-01    0.47       0.0  T
   2    -54.7155427  0.189208E+00  0.186E+00    0.35       1.0  T
   3    -54.8712969 -0.155754E+00  0.956E-01    0.93       1.0  T
   4    -54.8967382 -0.254414E-01  0.638E-01    0.67       1.0  T
   5    -54.9090607 -0.123225E-01  0.302E-01    0.51       1.0  T
   6    -54.9131296 -0.406886E-02  0.128E-01    0.45       1.0  T
   7    -54.9135532 -0.423603E-03  0.843E-02    0.44       1.0  T
   8    -54.9138066 -0.253400E-03  0.178E-02    0.42       1.0  T
   9    -54.9138181 -0.114975E-04  0.395E-03    0.42       4.2  T
  10    -54.9138169  0.116881E-05  0.536E-03    0.42       3.1  T
  11    -54.9138185 -0.154100E-05  0.731E-04    0.42      22.5  T
  12    -54.9138184  0.584250E-08  0.601E-04    0.42      27.3  T
  13    -54.9138185 -0.131427E-07  0.359E-04    0.42      45.8  T
     SCC iter.                  ...        0 min,  0.031 sec
     gradient                   ...        0 min,  0.024 sec
 * total energy  :   -51.7057979 Eh     change       -0.4220740E+01 Eh
   gradient norm :     4.1059293 Eh/α   predicted    -0.4190016E+01 (  -0.73%)
   displ. norm   :     0.6243667 α      lambda       -0.2557000E+01
   maximum displ.:     0.6160078 α      in ANC's #27, #2, #95, ...

........................................................................
.............................. CYCLE    4 ..............................
........................................................................
   1    -54.2832896 -0.542833E+02  0.285E+00    1.04       0.0  T
   2    -53.9072238  0.376066E+00  0.380E+00    1.14       1.0  T
   3    -54.6293496 -0.722126E+00  0.178E+00    2.06       1.0  T
   4    -54.6841572 -0.548075E-01  0.133E+00    0.92       1.0  T
   5    -54.7799604 -0.958032E-01  0.533E-01    0.13       1.0  T
   6    -54.7884343 -0.847386E-02  0.355E-01    0.16       1.0  T
   7    -54.7502416  0.381927E-01  0.825E-01    0.12       1.0  T
   8    -54.7477786  0.246304E-02  0.841E-01    0.25       1.0  T
   9    -54.7907244 -0.429458E-01  0.271E-01    0.16       1.0  T
  10    -54.7944941 -0.376974E-02  0.131E-01    0.15       1.0  T
  11    -54.7929837  0.151043E-02  0.198E-01    0.13       1.0  T
  12    -54.7956458 -0.266206E-02  0.947E-03    0.14       1.7  T
  13    -54.7956405  0.522840E-05  0.127E-02    0.14       1.3  T
  14    -54.7956512 -0.106381E-04  0.167E-03    0.14       9.8  T
  15    -54.7956513 -0.160749E-06  0.242E-04    0.14      67.9  T
  16    -54.7956505  0.856971E-06  0.354E-03    0.14       4.6  T
  17    -54.7956513 -0.840544E-06  0.509E-04    0.14      32.3  T
     SCC iter.                  ...        0 min,  0.040 sec
     gradient                   ...        0 min,  0.025 sec
 * total energy  :   -53.4937900 Eh     change       -0.1787992E+01 Eh
   gradient norm :     1.6259875 Eh/α   predicted    -0.1778640E+01 (  -0.52%)
   displ. norm   :     0.3779138 α      lambda       -0.5937582E+00
   maximum displ.:     0.3489129 α      in ANC's #27, #2, #1, ...

........................................................................
.............................. CYCLE    5 ..............................
........................................................................
   1    -54.3998655 -0.543999E+02  0.223E+00    0.45       0.0  T
   2    -53.9237989  0.476067E+00  0.342E+00    1.00       1.0  T
   3    -54.5426138 -0.618815E+00  0.171E+00    1.66       1.0  T
   4    -54.6015884 -0.589746E-01  0.129E+00    0.64       1.0  T
   5    -54.5386377  0.629507E-01  0.162E+00    0.25       1.0  T
   6    -54.6835230 -0.144885E+00  0.756E-01    0.27       1.0  T
   7    -54.7153059 -0.317830E-01  0.379E-01    0.22       1.0  T
   8    -54.7016672  0.136387E-01  0.563E-01    0.24       1.0  T
   9    -54.7188028 -0.171355E-01  0.303E-01    0.19       1.0  T
  10    -54.7242178 -0.541508E-02  0.134E-01    0.20       1.0  T
  11    -54.7254655 -0.124764E-02  0.336E-02    0.20       1.0  T
  12    -54.7255277 -0.622569E-04  0.165E-02    0.20       1.0  T
  13    -54.7255475 -0.197521E-04  0.195E-03    0.20       8.4  T
  14    -54.7255477 -0.249335E-06  0.471E-04    0.20      34.9  T
  15    -54.7255478 -0.142730E-07  0.834E-05    0.20     197.2  T
     SCC iter.                  ...        0 min,  0.035 sec
     gradient                   ...        0 min,  0.024 sec
 * total energy  :   -53.8276326 Eh     change       -0.3338425E+00 Eh
   gradient norm :     0.2634454 Eh/α   predicted    -0.3392791E+00 (   1.63%)
   displ. norm   :     0.5575053 α      lambda       -0.3147215E-01
   maximum displ.:     0.5509321 α      in ANC's #1, #2, #27, ...

........................................................................
.............................. CYCLE    6 ..............................
........................................................................
   1    -54.6005611 -0.546006E+02  0.130E+00    0.78       0.0  T
   2    -53.8784666  0.722095E+00  0.353E+00    1.34       1.0  T
   3    -54.5222915 -0.643825E+00  0.169E+00    0.30       1.0  T
   4    -54.6803138 -0.158022E+00  0.742E-01    0.38       1.0  T
   5    -54.7172153 -0.369015E-01  0.193E-01    0.25       1.0  T
   6    -54.7163203  0.895030E-03  0.166E-01    0.25       1.0  T
   7    -54.7162482  0.720665E-04  0.139E-01    0.25       1.0  T
   8    -54.7160091  0.239131E-03  0.158E-01    0.27       1.0  T
   9    -54.7172517 -0.124261E-02  0.839E-02    0.26       1.0  T
  10    -54.7177048 -0.453126E-03  0.262E-02    0.26       1.0  T
  11    -54.7177536 -0.487735E-04  0.260E-03    0.26       6.3  T
  12    -54.7177464  0.719964E-05  0.104E-02    0.26       1.6  T
  13    -54.7177539 -0.754344E-05  0.434E-04    0.26      37.9  T
  14    -54.7177540 -0.969327E-08  0.128E-04    0.26     128.4  T
  15    -54.7177539  0.160513E-07  0.484E-04    0.26      34.0  T
     SCC iter.                  ...        0 min,  0.035 sec
     gradient                   ...        0 min,  0.024 sec
 * total energy  :   -53.8349429 Eh     change       -0.7310344E-02 Eh
   gradient norm :     0.3028784 Eh/α   predicted    -0.2064208E-01 ( 182.37%)
   displ. norm   :     0.5082084 α      lambda       -0.4300251E-01
   maximum displ.:     0.4845277 α      in ANC's #1, #2, #27, ...

........................................................................
.............................. CYCLE    7 ..............................
........................................................................
   1    -54.6919334 -0.546919E+02  0.849E-01    0.21       0.0  T
   2    -54.4738539  0.218080E+00  0.196E+00    1.92       1.0  T
   3    -54.6548204 -0.180967E+00  0.110E+00    0.49       1.0  T
   4    -54.7328751 -0.780546E-01  0.254E-01    0.22       1.0  T
   5    -54.7323773  0.497792E-03  0.155E-01    0.23       1.0  T
   6    -54.6756642  0.567131E-01  0.878E-01    0.21       1.0  T
   7    -54.7257340 -0.500698E-01  0.321E-01    0.25       1.0  T
   8    -54.7326989 -0.696489E-02  0.860E-02    0.23       1.0  T
   9    -54.7326149  0.839869E-04  0.897E-02    0.23       1.0  T
  10    -54.7332043 -0.589372E-03  0.113E-02    0.22       1.4  T
  11    -54.7331985  0.574457E-05  0.140E-02    0.22       1.2  T
  12    -54.7332123 -0.137635E-04  0.309E-03    0.22       5.3  T
  13    -54.7332127 -0.391012E-06  0.200E-03    0.22       8.2  T
  14    -54.7332128 -0.167676E-06  0.129E-03    0.22      12.7  T
  15    -54.7332129 -0.114578E-06  0.321E-04    0.22      51.2  T
  16    -54.7332130 -0.746888E-08  0.133E-05    0.22    1239.9  T
     SCC iter.                  ...        0 min,  0.037 sec
     gradient                   ...        0 min,  0.024 sec
 * total energy  :   -53.8509320 Eh     change       -0.1598909E-01 Eh
   gradient norm :     0.3273301 Eh/α   predicted    -0.2705930E-01 (  69.24%)
   displ. norm   :     0.1093171 α      lambda       -0.2740896E-01
   maximum displ.:     0.0783000 α      in ANC's #2, #27, #45, ...

........................................................................
.............................. CYCLE    8 ..............................
........................................................................
   1    -54.7568196 -0.547568E+02  0.232E-01    0.24       0.0  T
   2    -54.4886277  0.268192E+00  0.191E+00    0.30       1.0  T
   3    -54.7331047 -0.244477E+00  0.607E-01    0.29       1.0  T
   4    -54.7503510 -0.172464E-01  0.353E-01    0.26       1.0  T
   5    -54.7567817 -0.643063E-02  0.164E-01    0.24       1.0  T
   6    -54.7586956 -0.191393E-02  0.160E-02    0.23       1.0  T
   7    -54.7586985 -0.292108E-05  0.891E-03    0.23       1.8  T
   8    -54.7586743  0.242505E-04  0.183E-02    0.23       1.0  T
   9    -54.7586990 -0.247488E-04  0.219E-03    0.23       7.5  T
  10    -54.7586992 -0.241633E-06  0.747E-04    0.23      22.0  T
  11    -54.7586992  0.737851E-07  0.111E-03    0.23      14.8  T
  12    -54.7586993 -0.841104E-07  0.247E-04    0.23      66.6  T
     SCC iter.                  ...        0 min,  0.028 sec
     gradient                   ...        0 min,  0.024 sec
 * total energy  :   -53.8710962 Eh     change       -0.2016420E-01 Eh
   gradient norm :     0.1800290 Eh/α   predicted    -0.1386918E-01 ( -31.22%)
   displ. norm   :     0.2607689 α      lambda       -0.4496853E-01
   maximum displ.:     0.0949384 α      in ANC's #45, #32, #38, ...

........................................................................
.............................. CYCLE    9 ..............................
........................................................................
   1    -54.7564089 -0.547564E+02  0.979E-01    0.59       0.0  T
   2    -54.0841009  0.672308E+00  0.332E+00    1.11       1.0  T
   3    -54.8111161 -0.727015E+00  0.295E-01    0.26       1.0  T
   4    -54.8091244  0.199170E-02  0.290E-01    0.29       1.0  T
   5    -54.8002488  0.887564E-02  0.445E-01    0.24       1.0  T
   6    -54.8115241 -0.112753E-01  0.174E-01    0.28       1.0  T
   7    -54.8128244 -0.130026E-02  0.105E-01    0.25       1.0  T
   8    -54.8135525 -0.728090E-03  0.171E-02    0.26       1.0  T
   9    -54.8135612 -0.872025E-05  0.119E-02    0.26       1.4  T
  10    -54.8135693 -0.809896E-05  0.175E-03    0.26       9.4  T
  11    -54.8135689  0.401689E-06  0.293E-03    0.26       5.6  T
  12    -54.8135695 -0.580655E-06  0.193E-04    0.26      85.1  T
  13    -54.8135694  0.990288E-08  0.408E-04    0.26      40.3  T
     SCC iter.                  ...        0 min,  0.031 sec
     gradient                   ...        0 min,  0.025 sec
 * total energy  :   -53.9069470 Eh     change       -0.3585083E-01 Eh
   gradient norm :     0.1869631 Eh/α   predicted    -0.2401827E-01 ( -33.00%)
   displ. norm   :     0.4701894 α      lambda       -0.5629656E-01
   maximum displ.:     0.2106779 α      in ANC's #1, #45, #38, ...

........................................................................
.............................. CYCLE   10 ..............................
........................................................................
   1    -54.8233880 -0.548234E+02  0.962E-01    0.86       0.0  T
   2    -54.1807390  0.642649E+00  0.333E+00    0.69       1.0  T
   3    -54.8513514 -0.670612E+00  0.617E-01    0.49       1.0  T
   4    -54.8671911 -0.158397E-01  0.282E-01    0.38       1.0  T
   5    -54.8692291 -0.203801E-02  0.151E-01    0.33       1.0  T
   6    -54.8694787 -0.249599E-03  0.728E-02    0.34       1.0  T
   7    -54.8687522  0.726513E-03  0.117E-01    0.36       1.0  T
   8    -54.8696378 -0.885586E-03  0.137E-02    0.34       1.2  T
   9    -54.8696432 -0.536995E-05  0.431E-03    0.34       3.8  T
  10    -54.8696431  0.330707E-07  0.243E-03    0.34       6.8  T
  11    -54.8696432 -0.623527E-07  0.187E-03    0.34       8.8  T
  12    -54.8696434 -0.146651E-06  0.109E-03    0.34      15.0  T
  13    -54.8696434 -0.668545E-07  0.201E-04    0.34      81.7  T
  14    -54.8696434 -0.159841E-08  0.664E-05    0.34     247.7  T
     SCC iter.                  ...        0 min,  0.033 sec
     gradient                   ...        0 min,  0.025 sec
 * total energy  :   -53.9460845 Eh     change       -0.3913744E-01 Eh
   gradient norm :     0.2353735 Eh/α   predicted    -0.3437215E-01 ( -12.18%)
   displ. norm   :     0.3927262 α      lambda       -0.2752164E-01
   maximum displ.:     0.2978172 α      in ANC's #1, #45, #38, ...

........................................................................
.............................. CYCLE   11 ..............................
........................................................................
   1    -54.8610863 -0.548611E+02  0.571E-01    0.57       0.0  T
   2    -54.3728515  0.488235E+00  0.293E+00    0.58       1.0  T
   3    -54.8753942 -0.502543E+00  0.257E-01    0.43       1.0  T
   4    -54.8767166 -0.132231E-02  0.142E-01    0.40       1.0  T
   5    -54.8761763  0.540279E-03  0.126E-01    0.38       1.0  T
   6    -54.8767094 -0.533128E-03  0.666E-02    0.39       1.0  T
   7    -54.8769552 -0.245799E-03  0.167E-02    0.40       1.0  T
   8    -54.8769658 -0.106281E-04  0.558E-03    0.40       2.9  T
   9    -54.8769636  0.223205E-05  0.701E-03    0.40       2.3  T
  10    -54.8769663 -0.266990E-05  0.146E-03    0.40      11.3  T
  11    -54.8769663 -0.308852E-07  0.710E-04    0.40      23.2  T
  12    -54.8769663 -0.258076E-07  0.205E-04    0.40      80.1  T
     SCC iter.                  ...        0 min,  0.029 sec
     gradient                   ...        0 min,  0.024 sec
 * total energy  :   -53.9633970 Eh     change       -0.1731252E-01 Eh
   gradient norm :     0.2095956 Eh/α   predicted    -0.1588402E-01 (  -8.25%)
   displ. norm   :     0.1642812 α      lambda       -0.1442004E-01
   maximum displ.:     0.0572643 α      in ANC's #45, #54, #74, ...

........................................................................
.............................. CYCLE   12 ..............................
........................................................................
   1    -54.8838795 -0.548839E+02  0.222E-01    0.45       0.0  T
   2    -54.7875901  0.962894E-01  0.130E+00    0.33       1.0  T
   3    -54.8842407 -0.966506E-01  0.167E-01    0.45       1.0  T
   4    -54.8854361 -0.119539E-02  0.678E-02    0.42       1.0  T
   5    -54.8854635 -0.274628E-04  0.337E-02    0.42       1.0  T
   6    -54.8855294 -0.658605E-04  0.683E-03    0.41       2.4  T
   7    -54.8855303 -0.903971E-06  0.301E-03    0.41       5.5  T
   8    -54.8855301  0.183334E-06  0.214E-03    0.41       7.7  T
   9    -54.8855303 -0.245122E-06  0.625E-04    0.41      26.3  T
  10    -54.8855303 -0.773891E-08  0.335E-04    0.41      49.1  T
     SCC iter.                  ...        0 min,  0.024 sec
     gradient                   ...        0 min,  0.024 sec
 * total energy  :   -53.9757035 Eh     change       -0.1230650E-01 Eh
   gradient norm :     0.1994680 Eh/α   predicted    -0.7404883E-02 ( -39.83%)
   displ. norm   :     0.3416010 α      lambda       -0.4392258E-01
   maximum displ.:     0.0926473 α      in ANC's #45, #54, #74, ...

........................................................................
.............................. CYCLE   13 ..............................
........................................................................
   1    -54.8992777 -0.548993E+02  0.338E-01    0.43       0.0  T
   2    -54.8943674  0.491027E-02  0.400E-01    0.55       1.0  T
   3    -54.8845931  0.977427E-02  0.541E-01    0.38       1.0  T
   4    -54.8993351 -0.147420E-01  0.214E-01    0.49       1.0  T
   5    -54.9008546 -0.151949E-02  0.868E-02    0.47       1.0  T
   6    -54.9012480 -0.393340E-03  0.267E-02    0.45       1.0  T
   7    -54.9012767 -0.287350E-04  0.122E-02    0.45       1.3  T
   8    -54.9012817 -0.498963E-05  0.375E-03    0.45       4.4  T
   9    -54.9012821 -0.464059E-06  0.143E-03    0.45      11.5  T
  10    -54.9012823 -0.108962E-06  0.415E-04    0.45      39.6  T
  11    -54.9012823 -0.304612E-08  0.147E-04    0.45     111.6  T
     SCC iter.                  ...        0 min,  0.026 sec
     gradient                   ...        0 min,  0.024 sec
 * total energy  :   -54.0064143 Eh     change       -0.3071076E-01 Eh
   gradient norm :     0.1582932 Eh/α   predicted    -0.2452447E-01 ( -20.14%)
   displ. norm   :     0.2170246 α      lambda       -0.1833525E-01
   maximum displ.:     0.0529633 α      in ANC's #54, #74, #47, ...

........................................................................
.............................. CYCLE   14 ..............................
........................................................................
   1    -54.9034703 -0.549035E+02  0.390E-01    0.42       0.0  T
   2    -54.8722009  0.312693E-01  0.827E-01    0.92       1.0  T
   3    -54.9099105 -0.377096E-01  0.174E-01    0.49       1.0  T
   4    -54.9101408 -0.230263E-03  0.109E-01    0.49       1.0  T
   5    -54.9087888  0.135201E-02  0.168E-01    0.44       1.0  T
   6    -54.9104921 -0.170327E-02  0.169E-02    0.47       1.0  T
   7    -54.9105052 -0.131936E-04  0.500E-03    0.47       3.3  T
   8    -54.9105055 -0.276335E-06  0.310E-03    0.47       5.3  T
   9    -54.9105057 -0.151793E-06  0.208E-03    0.47       7.9  T
  10    -54.9105059 -0.184966E-06  0.559E-04    0.47      29.4  T
  11    -54.9105059 -0.379817E-08  0.284E-04    0.47      57.9  T
     SCC iter.                  ...        0 min,  0.026 sec
     gradient                   ...        0 min,  0.024 sec
 * total energy  :   -54.0184846 Eh     change       -0.1207038E-01 Eh
   gradient norm :     0.1493416 Eh/α   predicted    -0.9599549E-02 ( -20.47%)
   displ. norm   :     0.1594114 α      lambda       -0.8564291E-02
   maximum displ.:     0.0866647 α      in ANC's #1, #54, #74, ...

........................................................................
.............................. CYCLE   15 ..............................
........................................................................
   1    -54.9116203 -0.549116E+02  0.243E-01    0.45       0.0  T
   2    -54.8945946  0.170257E-01  0.578E-01    0.72       1.0  T
   3    -54.9136059 -0.190113E-01  0.973E-02    0.48       1.0  T
   4    -54.9137426 -0.136671E-03  0.536E-02    0.49       1.0  T
   5    -54.9136475  0.950715E-04  0.511E-02    0.48       1.0  T
   6    -54.9137938 -0.146342E-03  0.815E-03    0.49       2.0  T
   7    -54.9137972 -0.340076E-05  0.230E-03    0.49       7.1  T
   8    -54.9137971  0.124448E-06  0.230E-03    0.49       7.2  T
   9    -54.9137974 -0.251773E-06  0.534E-04    0.49      30.8  T
  10    -54.9137974 -0.134113E-07  0.161E-04    0.49     102.2  T
     SCC iter.                  ...        0 min,  0.024 sec
     gradient                   ...        0 min,  0.024 sec
 * total energy  :   -54.0252845 Eh     change       -0.6799820E-02 Eh
   gradient norm :     0.1482658 Eh/α   predicted    -0.4391786E-02 ( -35.41%)
   displ. norm   :     0.2397810 α      lambda       -0.1563662E-01
   maximum displ.:     0.1170623 α      in ANC's #1, #47, #39, ...

........................................................................
.............................. CYCLE   16 ..............................
........................................................................
   1    -54.9171205 -0.549171E+02  0.356E-01    0.47       0.0  T
   2    -54.8905019  0.266186E-01  0.749E-01    0.87       1.0  T
   3    -54.9217142 -0.312122E-01  0.132E-01    0.52       1.0  T
   4    -54.9218237 -0.109512E-03  0.782E-02    0.53       1.0  T
   5    -54.9214645  0.359153E-03  0.898E-02    0.50       1.0  T
   6    -54.9219120 -0.447461E-03  0.124E-02    0.52       1.3  T
   7    -54.9219188 -0.678244E-05  0.424E-03    0.52       3.9  T
   8    -54.9219193 -0.588417E-06  0.190E-03    0.52       8.6  T
   9    -54.9219194 -0.857257E-07  0.632E-04    0.52      26.0  T
  10    -54.9219194 -0.583780E-08  0.327E-04    0.52      50.3  T
     SCC iter.                  ...        0 min,  0.024 sec
     gradient                   ...        0 min,  0.025 sec
 * total energy  :   -54.0366587 Eh     change       -0.1137428E-01 Eh
   gradient norm :     0.1380720 Eh/α   predicted    -0.8267893E-02 ( -27.31%)
   displ. norm   :     0.2808838 α      lambda       -0.1487113E-01
   maximum displ.:     0.1968906 α      in ANC's #1, #39, #17, ...

........................................................................
.............................. CYCLE   17 ..............................
........................................................................
   1    -54.9180535 -0.549181E+02  0.279E-01    0.54       0.0  T
   2    -54.9099477  0.810578E-02  0.417E-01    0.69       1.0  T
   3    -54.9154059 -0.545816E-02  0.293E-01    0.51       1.0  T
   4    -54.9188575 -0.345164E-02  0.643E-02    0.57       1.0  T
   5    -54.9189529 -0.953498E-04  0.273E-02    0.56       1.0  T
   6    -54.9189889 -0.360552E-04  0.776E-03    0.56       2.1  T
   7    -54.9189903 -0.137884E-05  0.362E-03    0.56       4.5  T
   8    -54.9189905 -0.216997E-06  0.115E-03    0.56      14.3  T
   9    -54.9189906 -0.363575E-07  0.393E-04    0.56      41.8  T
  10    -54.9189906  0.956412E-09  0.244E-04    0.56      67.5  T
     SCC iter.                  ...        0 min,  0.024 sec
     gradient                   ...        0 min,  0.025 sec
 * total energy  :   -54.0460612 Eh     change       -0.9402510E-02 Eh
   gradient norm :     0.1219894 Eh/α   predicted    -0.8022395E-02 ( -14.68%)
   displ. norm   :     0.1612964 α      lambda       -0.1089654E-01
   maximum displ.:     0.0503401 α      in ANC's #2, #39, #38, ...

........................................................................
.............................. CYCLE   18 ..............................
........................................................................
   1    -54.9315872 -0.549316E+02  0.203E-01    0.58       0.0  T
   2    -54.9302174  0.136984E-02  0.226E-01    0.65       1.0  T
   3    -54.9292504  0.967050E-03  0.257E-01    0.55       1.0  T
   4    -54.9322594 -0.300900E-02  0.892E-02    0.61       1.0  T
   5    -54.9324439 -0.184532E-03  0.252E-02    0.60       1.0  T
   6    -54.9324623 -0.184357E-04  0.965E-03    0.60       1.7  T
   7    -54.9324659 -0.358139E-05  0.241E-03    0.60       6.8  T
   8    -54.9324659 -0.312478E-07  0.161E-03    0.60      10.2  T
   9    -54.9324660 -0.716114E-07  0.570E-04    0.60      28.9  T
  10    -54.9324660 -0.307848E-08  0.222E-04    0.60      73.9  T
     SCC iter.                  ...        0 min,  0.024 sec
     gradient                   ...        0 min,  0.025 sec
 * total energy  :   -54.0515995 Eh     change       -0.5538283E-02 Eh
   gradient norm :     0.1644123 Eh/α   predicted    -0.5590045E-02 (   0.93%)
   displ. norm   :     0.0898362 α      lambda       -0.6074575E-02
   maximum displ.:     0.0457933 α      in ANC's #1, #17, #21, ...

........................................................................
.............................. CYCLE   19 ..............................
........................................................................
   1    -54.9322983 -0.549323E+02  0.112E-01    0.63       0.0  T
   2    -54.9294387  0.285958E-02  0.256E-01    0.56       1.0  T
   3    -54.9324341 -0.299538E-02  0.724E-02    0.63       1.0  T
   4    -54.9325982 -0.164156E-03  0.340E-02    0.61       1.0  T
   5    -54.9326206 -0.223851E-04  0.115E-02    0.61       1.4  T
   6    -54.9326234 -0.276599E-05  0.423E-03    0.61       3.9  T
   7    -54.9326243 -0.950381E-06  0.101E-03    0.61      16.3  T
   8    -54.9326243 -0.367125E-08  0.466E-04    0.61      35.2  T
   9    -54.9326243 -0.413145E-08  0.240E-04    0.61      68.4  T
     SCC iter.                  ...        0 min,  0.022 sec
     gradient                   ...        0 min,  0.025 sec
 * total energy  :   -54.0565090 Eh     change       -0.4909494E-02 Eh
   gradient norm :     0.1269239 Eh/α   predicted    -0.3061819E-02 ( -37.63%)
   displ. norm   :     0.1538598 α      lambda       -0.1261322E-01
   maximum displ.:     0.0426418 α      in ANC's #38, #105, #39, ...

........................................................................
.............................. CYCLE   20 ..............................
........................................................................
   1    -54.9377039 -0.549377E+02  0.260E-01    0.71       0.0  T
   2    -54.9214518  0.162521E-01  0.594E-01    0.55       1.0  T
   3    -54.9380686 -0.166168E-01  0.179E-01    0.70       1.0  T
   4    -54.9392724 -0.120384E-02  0.596E-02    0.66       1.0  T
   5    -54.9392886 -0.162165E-04  0.179E-02    0.65       1.0  T
   6    -54.9392975 -0.889632E-05  0.727E-03    0.65       2.3  T
   7    -54.9392998 -0.230650E-05  0.296E-03    0.65       5.6  T
   8    -54.9393001 -0.289385E-06  0.155E-03    0.65      10.6  T
   9    -54.9393002 -0.705591E-07  0.584E-04    0.65      28.2  T
  10    -54.9393002 -0.133093E-07  0.115E-04    0.65     143.2  T
     SCC iter.                  ...        0 min,  0.024 sec
     gradient                   ...        0 min,  0.025 sec
 * total energy  :   -54.0648491 Eh     change       -0.8340081E-02 Eh
   gradient norm :     0.0978340 Eh/α   predicted    -0.6455938E-02 ( -22.59%)
   displ. norm   :     0.1068554 α      lambda       -0.4971347E-02
   maximum displ.:     0.0315248 α      in ANC's #38, #39, #21, ...
 * RMSD in coord.:     0.5957262 α      energy gain  -0.1349850E+02 Eh

generating ANC from model Hessian ...
Using Lindh-Hessian (1995)
 Shifting diagonal of input Hessian by   9.546017862121309E-003
 Lowest  eigenvalues of input Hessian
    0.000000    0.000000    0.000000    0.000000    0.000000    0.000000
    0.010000    0.010167    0.010683    0.012047    0.013416    0.013892
    0.016744    0.017086    0.018152    0.019048    0.019360    0.020867
 Highest eigenvalues
    1.945107    1.980324    2.041118    2.054831    2.163321    4.268194
 

........................................................................
.............................. CYCLE   21 ..............................
........................................................................
   1    -54.9435549 -0.549436E+02  0.132E-01    0.70       0.0  T
   2    -54.9425602  0.994647E-03  0.161E-01    0.64       1.0  T
   3    -54.9431602 -0.599971E-03  0.118E-01    0.71       1.0  T
   4    -54.9437025 -0.542370E-03  0.273E-02    0.68       1.0  T
   5    -54.9437142 -0.116420E-04  0.672E-03    0.68       2.4  T
   6    -54.9437160 -0.185717E-05  0.202E-03    0.68       8.1  T
   7    -54.9437160  0.253585E-08  0.133E-03    0.68      12.3  T
   8    -54.9437161 -0.496256E-07  0.292E-04    0.68      56.4  T
   9    -54.9437161 -0.762633E-09  0.151E-04    0.68     108.9  T
     SCC iter.                  ...        0 min,  0.022 sec
     gradient                   ...        0 min,  0.025 sec
 * total energy  :   -54.0684622 Eh     change       -0.3613064E-02 Eh
   gradient norm :     0.0978885 Eh/α   predicted     0.0000000E+00 (-100.00%)
   displ. norm   :     0.5617786 α      lambda       -0.2541172E-01
   maximum displ.:     0.2557127 α      in ANC's #21, #17, #11, ...

........................................................................
.............................. CYCLE   22 ..............................
........................................................................
   1    -54.9804721 -0.549805E+02  0.301E-01    0.72       0.0  T
   2    -54.9804341  0.380558E-04  0.194E-01    0.74       1.0  T
   3    -54.9768403  0.359381E-02  0.260E-01    0.67       1.0  T
   4    -54.9798998 -0.305957E-02  0.120E-01    0.76       1.0  T
   5    -54.9805816 -0.681719E-03  0.159E-02    0.73       1.0  T
   6    -54.9805898 -0.825254E-05  0.731E-03    0.73       2.2  T
   7    -54.9805915 -0.170832E-05  0.201E-03    0.73       8.2  T
   8    -54.9805916 -0.691765E-07  0.686E-04    0.73      24.0  T
   9    -54.9805916 -0.153259E-07  0.232E-04    0.73      70.8  T
     SCC iter.                  ...        0 min,  0.022 sec
     gradient                   ...        0 min,  0.025 sec
 * total energy  :   -54.0884893 Eh     change       -0.2002716E-01 Eh
   gradient norm :     0.0422145 Eh/α   predicted    -0.1671567E-01 ( -16.53%)
   displ. norm   :     0.6642866 α      lambda       -0.1714777E-01
   maximum displ.:     0.2901121 α      in ANC's #17, #11, #21, ...

........................................................................
.............................. CYCLE   23 ..............................
........................................................................
   1    -55.0052975 -0.550053E+02  0.328E-01    0.81       0.0  T
   2    -55.0052133  0.842289E-04  0.214E-01    0.84       1.0  T
   3    -55.0025609  0.265237E-02  0.242E-01    0.76       1.0  T
   4    -55.0046428 -0.208191E-02  0.135E-01    0.86       1.0  T
   5    -55.0055047 -0.861837E-03  0.157E-02    0.83       1.0  T
   6    -55.0055130 -0.837592E-05  0.693E-03    0.82       2.4  T
   7    -55.0055144 -0.140446E-05  0.189E-03    0.82       8.7  T
   8    -55.0055145 -0.811412E-07  0.656E-04    0.82      25.1  T
   9    -55.0055145 -0.125916E-07  0.225E-04    0.82      73.2  T
     SCC iter.                  ...        0 min,  0.022 sec
     gradient                   ...        0 min,  0.025 sec
 * total energy  :   -54.1016363 Eh     change       -0.1314698E-01 Eh
   gradient norm :     0.0309048 Eh/α   predicted    -0.1235726E-01 (  -6.01%)
   displ. norm   :     0.6652149 α      lambda       -0.1000205E-01
   maximum displ.:     0.2751892 α      in ANC's #11, #17, #8, ...

........................................................................
.............................. CYCLE   24 ..............................
........................................................................
   1    -55.0147367 -0.550147E+02  0.291E-01    0.92       0.0  T
   2    -55.0141597  0.576954E-03  0.215E-01    0.99       1.0  T
   3    -55.0127467  0.141303E-02  0.232E-01    0.88       1.0  T
   4    -55.0149015 -0.215483E-02  0.657E-02    0.96       1.0  T
   5    -55.0150604 -0.158884E-03  0.141E-02    0.95       1.2  T
   6    -55.0150670 -0.660684E-05  0.561E-03    0.95       2.9  T
   7    -55.0150678 -0.780333E-06  0.233E-03    0.95       7.0  T
   8    -55.0150679 -0.550366E-07  0.529E-04    0.95      31.1  T
   9    -55.0150679 -0.729470E-08  0.232E-04    0.95      70.8  T
     SCC iter.                  ...        0 min,  0.022 sec
     gradient                   ...        0 min,  0.025 sec
 * total energy  :   -54.1096116 Eh     change       -0.7975327E-02 Eh
   gradient norm :     0.0313638 Eh/α   predicted    -0.7214016E-02 (  -9.55%)
   displ. norm   :     0.6776239 α      lambda       -0.7438623E-02
   maximum displ.:     0.2626417 α      in ANC's #11, #8, #5, ...

........................................................................
.............................. CYCLE   25 ..............................
........................................................................
   1    -55.0218587 -0.550219E+02  0.296E-01    1.06       0.0  T
   2    -55.0206217  0.123705E-02  0.258E-01    1.17       1.0  T
   3    -55.0221692 -0.154759E-02  0.160E-01    1.07       1.0  T
   4    -55.0227694 -0.600196E-03  0.398E-02    1.11       1.0  T
   5    -55.0228090 -0.396014E-04  0.137E-02    1.10       1.2  T
   6    -55.0228159 -0.684871E-05  0.363E-03    1.10       4.5  T
   7    -55.0228161 -0.167002E-06  0.200E-03    1.10       8.2  T
   8    -55.0228161 -0.623636E-07  0.470E-04    1.10      35.0  T
   9    -55.0228161 -0.268346E-08  0.220E-04    1.10      74.8  T
     SCC iter.                  ...        0 min,  0.023 sec
     gradient                   ...        0 min,  0.025 sec
 * total energy  :   -54.1157206 Eh     change       -0.6109011E-02 Eh
   gradient norm :     0.0292074 Eh/α   predicted    -0.5427126E-02 ( -11.16%)
   displ. norm   :     0.6978528 α      lambda       -0.6216971E-02
   maximum displ.:     0.2483029 α      in ANC's #11, #8, #2, ...

........................................................................
.............................. CYCLE   26 ..............................
........................................................................
   1    -55.0278374 -0.550278E+02  0.321E-01    1.21       0.0  T
   2    -55.0266618  0.117560E-02  0.283E-01    1.31       1.0  T
   3    -55.0291543 -0.249254E-02  0.142E-01    1.23       1.0  T
   4    -55.0294861 -0.331797E-03  0.353E-02    1.26       1.0  T
   5    -55.0294991 -0.129406E-04  0.129E-02    1.25       1.3  T
   6    -55.0295056 -0.647643E-05  0.358E-03    1.25       4.6  T
   7    -55.0295058 -0.203855E-06  0.190E-03    1.25       8.7  T
   8    -55.0295058 -0.715039E-07  0.574E-04    1.25      28.7  T
   9    -55.0295058 -0.449879E-08  0.224E-04    1.25      73.5  T
     SCC iter.                  ...        0 min,  0.022 sec
     gradient                   ...        0 min,  0.025 sec
 * total energy  :   -54.1208882 Eh     change       -0.5167563E-02 Eh
   gradient norm :     0.0224490 Eh/α   predicted    -0.4622294E-02 ( -10.55%)
   displ. norm   :     0.7342673 α      lambda       -0.5446339E-02
   maximum displ.:     0.2822585 α      in ANC's #2, #16, #5, ...

........................................................................
.............................. CYCLE   27 ..............................
........................................................................
   1    -55.0336849 -0.550337E+02  0.334E-01    1.36       0.0  T
   2    -55.0332084  0.476500E-03  0.268E-01    1.40       1.0  T
   3    -55.0352464 -0.203795E-02  0.138E-01    1.36       1.0  T
   4    -55.0355292 -0.282812E-03  0.382E-02    1.37       1.0  T
   5    -55.0355417 -0.124860E-04  0.161E-02    1.37       1.0  T
   6    -55.0355522 -0.105514E-04  0.377E-03    1.37       4.4  T
   7    -55.0355524 -0.199619E-06  0.202E-03    1.37       8.1  T
   8    -55.0355525 -0.873152E-07  0.550E-04    1.37      29.9  T
   9    -55.0355525 -0.414063E-08  0.246E-04    1.37      66.9  T
     SCC iter.                  ...        0 min,  0.022 sec
     gradient                   ...        0 min,  0.024 sec
 * total energy  :   -54.1253228 Eh     change       -0.4434582E-02 Eh
   gradient norm :     0.0248030 Eh/α   predicted    -0.4191357E-02 (  -5.48%)
   displ. norm   :     0.7207209 α      lambda       -0.4945880E-02
   maximum displ.:     0.3316705 α      in ANC's #2, #1, #4, ...

........................................................................
.............................. CYCLE   28 ..............................
........................................................................
   1    -55.0390717 -0.550391E+02  0.318E-01    1.46       0.0  T
   2    -55.0391353 -0.635619E-04  0.227E-01    1.44       1.0  T
   3    -55.0402037 -0.106838E-02  0.135E-01    1.43       1.0  T
   4    -55.0404925 -0.288772E-03  0.348E-02    1.44       1.0  T
   5    -55.0405020 -0.949005E-05  0.147E-02    1.43       1.1  T
   6    -55.0405108 -0.882164E-05  0.374E-03    1.43       4.4  T
   7    -55.0405110 -0.264870E-06  0.182E-03    1.43       9.0  T
   8    -55.0405111 -0.604653E-07  0.535E-04    1.43      30.7  T
   9    -55.0405111 -0.264012E-08  0.235E-04    1.43      70.0  T
     SCC iter.                  ...        0 min,  0.022 sec
     gradient                   ...        0 min,  0.024 sec
 * total energy  :   -54.1291430 Eh     change       -0.3820177E-02 Eh
   gradient norm :     0.0257180 Eh/α   predicted    -0.3757477E-02 (  -1.64%)
   displ. norm   :     0.7196225 α      lambda       -0.4102814E-02
   maximum displ.:     0.3611237 α      in ANC's #2, #1, #4, ...

........................................................................
.............................. CYCLE   29 ..............................
........................................................................
   1    -55.0385119 -0.550385E+02  0.281E-01    1.48       0.0  T
   2    -55.0387299 -0.218044E-03  0.182E-01    1.42       1.0  T
   3    -55.0390630 -0.333037E-03  0.123E-01    1.44       1.0  T
   4    -55.0393218 -0.258811E-03  0.253E-02    1.44       1.0  T
   5    -55.0393318 -0.100143E-04  0.830E-03    1.43       2.0  T
   6    -55.0393342 -0.243954E-05  0.334E-03    1.43       4.9  T
   7    -55.0393344 -0.201278E-06  0.165E-03    1.43      10.0  T
   8    -55.0393345 -0.566611E-07  0.428E-04    1.43      38.4  T
   9    -55.0393345 -0.273005E-08  0.204E-04    1.43      80.5  T
     SCC iter.                  ...        0 min,  0.022 sec
     gradient                   ...        0 min,  0.024 sec
 * total energy  :   -54.1323671 Eh     change       -0.3224105E-02 Eh
   gradient norm :     0.0259789 Eh/α   predicted    -0.3113733E-02 (  -3.42%)
   displ. norm   :     0.6785302 α      lambda       -0.4391587E-02
   maximum displ.:     0.3513262 α      in ANC's #2, #1, #4, ...

........................................................................
.............................. CYCLE   30 ..............................
........................................................................
   1    -55.0503154 -0.550503E+02  0.264E-01    1.45       0.0  T
   2    -55.0504460 -0.130641E-03  0.154E-01    1.39       1.0  T
   3    -55.0502524  0.193618E-03  0.116E-01    1.42       1.0  T
   4    -55.0506219 -0.369461E-03  0.196E-02    1.41       1.0  T
   5    -55.0506315 -0.962877E-05  0.548E-03    1.40       3.0  T
   6    -55.0506322 -0.711867E-06  0.278E-03    1.40       5.9  T
   7    -55.0506324 -0.142446E-06  0.148E-03    1.40      11.1  T
   8    -55.0506324 -0.395855E-07  0.353E-04    1.40      46.6  T
   9    -55.0506324 -0.143413E-08  0.187E-04    1.40      88.1  T
     SCC iter.                  ...        0 min,  0.022 sec
     gradient                   ...        0 min,  0.024 sec
 * total energy  :   -54.1350750 Eh     change       -0.2707959E-02 Eh
   gradient norm :     0.0331945 Eh/α   predicted    -0.3206737E-02 (  18.42%)
   displ. norm   :     0.6252838 α      lambda       -0.3600101E-02
   maximum displ.:     0.3300157 α      in ANC's #2, #1, #4, ...

........................................................................
.............................. CYCLE   31 ..............................
........................................................................
   1    -55.0482210 -0.550482E+02  0.221E-01    1.42       0.0  T
   2    -55.0483271 -0.106065E-03  0.134E-01    1.36       1.0  T
   3    -55.0482216  0.105469E-03  0.941E-02    1.38       1.0  T
   4    -55.0484411 -0.219453E-03  0.145E-02    1.37       1.1  T
   5    -55.0484467 -0.563124E-05  0.476E-03    1.37       3.5  T
   6    -55.0484474 -0.641046E-06  0.229E-03    1.37       7.2  T
   7    -55.0484475 -0.962080E-07  0.123E-03    1.37      13.3  T
   8    -55.0484475 -0.282206E-07  0.371E-04    1.37      44.3  T
   9    -55.0484475 -0.224394E-08  0.185E-04    1.37      89.0  T
     SCC iter.                  ...        0 min,  0.022 sec
     gradient                   ...        0 min,  0.025 sec
 * total energy  :   -54.1376191 Eh     change       -0.2544018E-02 Eh
   gradient norm :     0.0206015 Eh/α   predicted    -0.2503863E-02 (  -1.58%)
   displ. norm   :     0.6223064 α      lambda       -0.2325524E-02
   maximum displ.:     0.3245590 α      in ANC's #1, #2, #4, ...

........................................................................
.............................. CYCLE   32 ..............................
........................................................................
   1    -55.0440262 -0.550440E+02  0.217E-01    1.36       0.0  T
   2    -55.0440761 -0.499006E-04  0.127E-01    1.31       1.0  T
   3    -55.0438755  0.200547E-03  0.898E-02    1.34       1.0  T
   4    -55.0441340 -0.258511E-03  0.134E-02    1.32       1.2  T
   5    -55.0441389 -0.481362E-05  0.665E-03    1.32       2.5  T
   6    -55.0441404 -0.159090E-05  0.171E-03    1.32       9.6  T
   7    -55.0441405 -0.454057E-07  0.860E-04    1.32      19.1  T
   8    -55.0441405 -0.739785E-08  0.311E-04    1.32      52.8  T
     SCC iter.                  ...        0 min,  0.020 sec
     gradient                   ...        0 min,  0.025 sec
 * total energy  :   -54.1393295 Eh     change       -0.1710489E-02 Eh
   gradient norm :     0.0210613 Eh/α   predicted    -0.1613060E-02 (  -5.70%)
   displ. norm   :     0.5970875 α      lambda       -0.2382959E-02
   maximum displ.:     0.3408686 α      in ANC's #1, #2, #4, ...

........................................................................
.............................. CYCLE   33 ..............................
........................................................................
   1    -55.0594896 -0.550595E+02  0.197E-01    1.33       0.0  T
   2    -55.0594974 -0.780106E-05  0.115E-01    1.32       1.0  T
   3    -55.0594856  0.117951E-04  0.205E-02    1.32       1.0  T
   4    -55.0594994 -0.137296E-04  0.445E-03    1.32       3.7  T
   5    -55.0594999 -0.488725E-06  0.233E-03    1.32       7.1  T
   6    -55.0595000 -0.111042E-06  0.113E-03    1.32      14.6  T
   7    -55.0595000 -0.137440E-07  0.469E-04    1.32      35.1  T
   8    -55.0595000 -0.579132E-08  0.126E-04    1.32     130.9  T
     SCC iter.                  ...        0 min,  0.020 sec
     gradient                   ...        0 min,  0.025 sec
 * total energy  :   -54.1406567 Eh     change       -0.1327144E-02 Eh
   gradient norm :     0.0253726 Eh/α   predicted    -0.1616261E-02 (  21.78%)
   displ. norm   :     0.5696734 α      lambda       -0.2499879E-02
   maximum displ.:     0.3133302 α      in ANC's #1, #2, #4, ...

........................................................................
.............................. CYCLE   34 ..............................
........................................................................
   1    -55.0651216 -0.550651E+02  0.207E-01    1.32       0.0  T
   2    -55.0651503 -0.286344E-04  0.120E-01    1.28       1.0  T
   3    -55.0649958  0.154453E-03  0.747E-02    1.29       1.0  T
   4    -55.0651743 -0.178429E-03  0.110E-02    1.29       1.5  T
   5    -55.0651764 -0.215975E-05  0.626E-03    1.28       2.6  T
   6    -55.0651778 -0.137764E-05  0.230E-03    1.28       7.1  T
   7    -55.0651779 -0.777973E-07  0.880E-04    1.29      18.7  T
   8    -55.0651779 -0.132438E-07  0.401E-04    1.28      41.0  T
     SCC iter.                  ...        0 min,  0.020 sec
     gradient                   ...        0 min,  0.024 sec
 * total energy  :   -54.1409922 Eh     change       -0.3355172E-03 Eh
   gradient norm :     0.0353465 Eh/α   predicted    -0.1655581E-02 ( 393.44%)
   displ. norm   :     0.3291166 α      lambda       -0.2564483E-02
   maximum displ.:     0.1730690 α      in ANC's #1, #2, #4, ...

........................................................................
.............................. CYCLE   35 ..............................
........................................................................
   1    -55.0545899 -0.550546E+02  0.132E-01    1.29       0.0  T
   2    -55.0545852  0.471734E-05  0.894E-02    1.27       1.0  T
   3    -55.0544921  0.930900E-04  0.703E-02    1.28       1.0  T
   4    -55.0546471 -0.155049E-03  0.133E-02    1.27       1.2  T
   5    -55.0546526 -0.547470E-05  0.440E-03    1.27       3.7  T
   6    -55.0546531 -0.476223E-06  0.147E-03    1.27      11.2  T
   7    -55.0546531 -0.203565E-07  0.713E-04    1.27      23.1  T
   8    -55.0546531 -0.940921E-08  0.245E-04    1.27      67.1  T
     SCC iter.                  ...        0 min,  0.020 sec
     gradient                   ...        0 min,  0.025 sec
 * total energy  :   -54.1424256 Eh     change       -0.1433394E-02 Eh
   gradient norm :     0.0147206 Eh/α   predicted    -0.1421130E-02 (  -0.86%)
   displ. norm   :     0.3132167 α      lambda       -0.8700474E-03
   maximum displ.:     0.2238447 α      in ANC's #1, #2, #3, ...

........................................................................
.............................. CYCLE   36 ..............................
........................................................................
   1    -55.0612433 -0.550612E+02  0.949E-02    1.27       0.0  T
   2    -55.0612491 -0.583921E-05  0.562E-02    1.29       1.0  T
   3    -55.0612193  0.298242E-04  0.352E-02    1.28       1.0  T
   4    -55.0612555 -0.361916E-04  0.400E-03    1.28       4.1  T
   5    -55.0612558 -0.357580E-06  0.247E-03    1.28       6.7  T
   6    -55.0612560 -0.226614E-06  0.637E-04    1.28      25.8  T
   7    -55.0612560 -0.134018E-08  0.315E-04    1.28      52.2  T
     SCC iter.                  ...        0 min,  0.018 sec
     gradient                   ...        0 min,  0.025 sec
 * total energy  :   -54.1430113 Eh     change       -0.5857404E-03 Eh
   gradient norm :     0.0140560 Eh/α   predicted    -0.4777033E-03 ( -18.44%)
   displ. norm   :     0.5078449 α      lambda       -0.9159254E-03
   maximum displ.:     0.3553007 α      in ANC's #1, #2, #4, ...

........................................................................
.............................. CYCLE   37 ..............................
........................................................................
   1    -55.0635220 -0.550635E+02  0.147E-01    1.29       0.0  T
   2    -55.0635239 -0.187844E-05  0.871E-02    1.29       1.0  T
   3    -55.0634929  0.310048E-04  0.276E-02    1.30       1.0  T
   4    -55.0635261 -0.331719E-04  0.453E-03    1.29       3.6  T
   5    -55.0635267 -0.688592E-06  0.158E-03    1.29      10.4  T
   6    -55.0635268 -0.282592E-07  0.808E-04    1.29      20.3  T
   7    -55.0635268 -0.768840E-08  0.301E-04    1.29      54.6  T
     SCC iter.                  ...        0 min,  0.018 sec
     gradient                   ...        0 min,  0.025 sec
 * total energy  :   -54.1436768 Eh     change       -0.6655125E-03 Eh
   gradient norm :     0.0134686 Eh/α   predicted    -0.5760833E-03 ( -13.44%)
   displ. norm   :     0.4786071 α      lambda       -0.8700921E-03
   maximum displ.:     0.3568685 α      in ANC's #1, #3, #2, ...

........................................................................
.............................. CYCLE   38 ..............................
........................................................................
   1    -55.0690056 -0.550690E+02  0.139E-01    1.29       0.0  T
   2    -55.0690149 -0.930792E-05  0.830E-02    1.32       1.0  T
   3    -55.0688841  0.130887E-03  0.629E-02    1.31       1.0  T
   4    -55.0690308 -0.146702E-03  0.828E-03    1.31       2.0  T
   5    -55.0690330 -0.229054E-05  0.303E-03    1.32       5.4  T
   6    -55.0690334 -0.302806E-06  0.951E-04    1.32      17.3  T
   7    -55.0690334 -0.703410E-08  0.514E-04    1.31      32.0  T
     SCC iter.                  ...        0 min,  0.018 sec
     gradient                   ...        0 min,  0.025 sec
 * total energy  :   -54.1442932 Eh     change       -0.6163162E-03 Eh
   gradient norm :     0.0141980 Eh/α   predicted    -0.5347009E-03 ( -13.24%)
   displ. norm   :     0.6056436 α      lambda       -0.8812321E-03
   maximum displ.:     0.4690432 α      in ANC's #1, #3, #2, ...

........................................................................
.............................. CYCLE   39 ..............................
........................................................................
   1    -55.0624310 -0.550624E+02  0.163E-01    1.31       0.0  T
   2    -55.0624450 -0.140074E-04  0.957E-02    1.32       1.0  T
   3    -55.0624042  0.407776E-04  0.353E-02    1.32       1.0  T
   4    -55.0624497 -0.454928E-04  0.607E-03    1.32       2.7  T
   5    -55.0624507 -0.100489E-05  0.217E-03    1.32       7.6  T
   6    -55.0624508 -0.866244E-07  0.125E-03    1.32      13.2  T
   7    -55.0624508 -0.208264E-07  0.573E-04    1.32      28.7  T
   8    -55.0624508 -0.846541E-08  0.156E-04    1.32     105.3  T
     SCC iter.                  ...        0 min,  0.020 sec
     gradient                   ...        0 min,  0.024 sec
 * total energy  :   -54.1448492 Eh     change       -0.5560594E-03 Eh
   gradient norm :     0.0166789 Eh/α   predicted    -0.6022401E-03 (   8.30%)
   displ. norm   :     0.5114405 α      lambda       -0.9619387E-03
   maximum displ.:     0.3800536 α      in ANC's #1, #3, #5, ...

........................................................................
.............................. CYCLE   40 ..............................
........................................................................
   1    -55.0651898 -0.550652E+02  0.172E-01    1.31       0.0  T
   2    -55.0652998 -0.110002E-03  0.109E-01    1.37       1.0  T
   3    -55.0653155 -0.157545E-04  0.770E-02    1.36       1.0  T
   4    -55.0654273 -0.111726E-03  0.248E-02    1.35       1.0  T
   5    -55.0654401 -0.128164E-04  0.106E-02    1.36       1.6  T
   6    -55.0654447 -0.463508E-05  0.196E-03    1.36       8.4  T
   7    -55.0654448 -0.602710E-07  0.101E-03    1.36      16.3  T
   8    -55.0654448 -0.138607E-07  0.321E-04    1.36      51.2  T
   9    -55.0654448 -0.215417E-08  0.158E-04    1.36     104.2  T
     SCC iter.                  ...        0 min,  0.022 sec
     gradient                   ...        0 min,  0.025 sec
 * total energy  :   -54.1454129 Eh     change       -0.5636332E-03 Eh
   gradient norm :     0.0163890 Eh/α   predicted    -0.6067773E-03 (   7.65%)
   displ. norm   :     0.4671206 α      lambda       -0.9752140E-03
   maximum displ.:     0.3885624 α      in ANC's #1, #3, #18, ...

........................................................................
.............................. CYCLE   41 ..............................
........................................................................
   1    -55.0640724 -0.550641E+02  0.137E-01    1.37       0.0  T
   2    -55.0641021 -0.297457E-04  0.813E-02    1.39       1.0  T
   3    -55.0640100  0.921946E-04  0.629E-02    1.38       1.0  T
   4    -55.0641360 -0.126067E-03  0.143E-02    1.38       1.2  T
   5    -55.0641425 -0.648537E-05  0.469E-03    1.39       3.5  T
   6    -55.0641433 -0.822740E-06  0.123E-03    1.39      13.3  T
   7    -55.0641433 -0.192008E-07  0.640E-04    1.39      25.7  T
   8    -55.0641434 -0.385445E-08  0.231E-04    1.39      71.2  T
     SCC iter.                  ...        0 min,  0.020 sec
     gradient                   ...        0 min,  0.025 sec
 * total energy  :   -54.1460566 Eh     change       -0.6436950E-03 Eh
   gradient norm :     0.0124863 Eh/α   predicted    -0.5940079E-03 (  -7.72%)
   displ. norm   :     0.4632691 α      lambda       -0.7927166E-03
   maximum displ.:     0.3884390 α      in ANC's #1, #3, #12, ...

........................................................................
.............................. CYCLE   42 ..............................
........................................................................
   1    -55.0615349 -0.550615E+02  0.142E-01    1.39       0.0  T
   2    -55.0615661 -0.312015E-04  0.856E-02    1.41       1.0  T
   3    -55.0614836  0.825497E-04  0.617E-02    1.40       1.0  T
   4    -55.0616064 -0.122831E-03  0.119E-02    1.41       1.4  T
   5    -55.0616102 -0.381099E-05  0.459E-03    1.41       3.6  T
   6    -55.0616111 -0.844356E-06  0.120E-03    1.41      13.7  T
   7    -55.0616111 -0.263374E-07  0.589E-04    1.41      27.9  T
   8    -55.0616111 -0.241087E-08  0.177E-04    1.41      92.9  T
     SCC iter.                  ...        0 min,  0.020 sec
     gradient                   ...        0 min,  0.025 sec
 * total energy  :   -54.1466078 Eh     change       -0.5511987E-03 Eh
   gradient norm :     0.0133058 Eh/α   predicted    -0.4814279E-03 ( -12.66%)
   displ. norm   :     0.4943007 α      lambda       -0.8423823E-03
   maximum displ.:     0.4136340 α      in ANC's #1, #5, #3, ...
 * RMSD in coord.:     1.5792317 α      energy gain  -0.8175865E-01 Eh

generating ANC from model Hessian ...
Using Lindh-Hessian (1995)
 Shifting diagonal of input Hessian by   9.649588115102425E-003
 Lowest  eigenvalues of input Hessian
    0.000000    0.000000    0.000000    0.000000    0.000000    0.000000
    0.010000    0.010393    0.010823    0.012268    0.013625    0.014963
    0.016397    0.017830    0.019041    0.019881    0.020560    0.021109
 Highest eigenvalues
    1.945924    2.025768    2.060054    2.151595    2.206277    4.389363
 

........................................................................
.............................. CYCLE   43 ..............................
........................................................................
   1    -55.0614228 -0.550614E+02  0.156E-01    1.41       0.0  T
   2    -55.0614581 -0.353048E-04  0.963E-02    1.43       1.0  T
   3    -55.0613768  0.813584E-04  0.682E-02    1.42       1.0  T
   4    -55.0615210 -0.144203E-03  0.118E-02    1.42       1.4  T
   5    -55.0615243 -0.330905E-05  0.505E-03    1.42       3.3  T
   6    -55.0615253 -0.101306E-05  0.134E-03    1.42      12.2  T
   7    -55.0615253 -0.236903E-07  0.668E-04    1.42      24.6  T
   8    -55.0615253 -0.560138E-08  0.159E-04    1.42     103.7  T
     SCC iter.                  ...        0 min,  0.020 sec
     gradient                   ...        0 min,  0.025 sec
 * total energy  :   -54.1471904 Eh     change       -0.5826227E-03 Eh
   gradient norm :     0.0143764 Eh/α   predicted     0.0000000E+00 (-100.00%)
   displ. norm   :     0.1350891 α      lambda       -0.5422340E-03
   maximum displ.:     0.0828563 α      in ANC's #1, #4, #12, ...

........................................................................
.............................. CYCLE   44 ..............................
........................................................................
   1    -55.0654823 -0.550655E+02  0.584E-02    1.42       0.0  T
   2    -55.0654834 -0.110510E-05  0.347E-02    1.42       1.0  T
   3    -55.0654718  0.116290E-04  0.191E-02    1.43       1.0  T
   4    -55.0654844 -0.125971E-04  0.305E-03    1.42       5.4  T
   5    -55.0654847 -0.338797E-06  0.107E-03    1.42      15.4  T
   6    -55.0654847 -0.285429E-07  0.527E-04    1.42      31.2  T
   7    -55.0654847 -0.225237E-08  0.186E-04    1.42      88.5  T
     SCC iter.                  ...        0 min,  0.018 sec
     gradient                   ...        0 min,  0.025 sec
 * total energy  :   -54.1476026 Eh     change       -0.4122632E-03 Eh
   gradient norm :     0.0059567 Eh/α   predicted    -0.2760918E-03 ( -33.03%)
   displ. norm   :     0.2582160 α      lambda       -0.5311505E-03
   maximum displ.:     0.1728821 α      in ANC's #1, #4, #12, ...

........................................................................
.............................. CYCLE   45 ..............................
........................................................................
   1    -55.0685543 -0.550686E+02  0.849E-02    1.42       0.0  T
   2    -55.0685568 -0.247386E-05  0.504E-02    1.42       1.0  T
   3    -55.0685247  0.321152E-04  0.323E-02    1.42       1.0  T
   4    -55.0685603 -0.356291E-04  0.456E-03    1.42       3.6  T
   5    -55.0685609 -0.637865E-06  0.184E-03    1.42       8.9  T
   6    -55.0685610 -0.104879E-06  0.811E-04    1.42      20.3  T
   7    -55.0685610 -0.449621E-08  0.246E-04    1.42      66.8  T
     SCC iter.                  ...        0 min,  0.018 sec
     gradient                   ...        0 min,  0.025 sec
 * total energy  :   -54.1479814 Eh     change       -0.3787386E-03 Eh
   gradient norm :     0.0062991 Eh/α   predicted    -0.2833135E-03 ( -25.20%)
   displ. norm   :     0.2718281 α      lambda       -0.3318790E-03
   maximum displ.:     0.1953198 α      in ANC's #1, #4, #2, ...

........................................................................
.............................. CYCLE   46 ..............................
........................................................................
   1    -55.0688152 -0.550688E+02  0.769E-02    1.42       0.0  T
   2    -55.0688184 -0.319937E-05  0.455E-02    1.42       1.0  T
   3    -55.0687980  0.204220E-04  0.253E-02    1.42       1.0  T
   4    -55.0688214 -0.233894E-04  0.359E-03    1.42       4.6  T
   5    -55.0688217 -0.291064E-06  0.181E-03    1.42       9.1  T
   6    -55.0688218 -0.101481E-06  0.788E-04    1.42      20.9  T
   7    -55.0688218 -0.622673E-08  0.254E-04    1.42      64.8  T
     SCC iter.                  ...        0 min,  0.019 sec
     gradient                   ...        0 min,  0.025 sec
 * total energy  :   -54.1482472 Eh     change       -0.2657751E-03 Eh
   gradient norm :     0.0077355 Eh/α   predicted    -0.1782014E-03 ( -32.95%)
   displ. norm   :     0.2960509 α      lambda       -0.3217451E-03
   maximum displ.:     0.2180504 α      in ANC's #1, #4, #2, ...

........................................................................
.............................. CYCLE   47 ..............................
........................................................................
   1    -55.0681739 -0.550682E+02  0.768E-02    1.41       0.0  T
   2    -55.0681785 -0.466091E-05  0.458E-02    1.42       1.0  T
   3    -55.0681546  0.239244E-04  0.269E-02    1.42       1.0  T
   4    -55.0681830 -0.284270E-04  0.395E-03    1.42       4.2  T
   5    -55.0681834 -0.369133E-06  0.175E-03    1.42       9.4  T
   6    -55.0681835 -0.892400E-07  0.816E-04    1.42      20.1  T
   7    -55.0681835 -0.757029E-08  0.338E-04    1.42      48.6  T
     SCC iter.                  ...        0 min,  0.018 sec
     gradient                   ...        0 min,  0.025 sec
 * total energy  :   -54.1485191 Eh     change       -0.2719865E-03 Eh
   gradient norm :     0.0063452 Eh/α   predicted    -0.1749736E-03 ( -35.67%)
   displ. norm   :     0.3250992 α      lambda       -0.3317138E-03
   maximum displ.:     0.2427028 α      in ANC's #1, #4, #3, ...

........................................................................
.............................. CYCLE   48 ..............................
........................................................................
   1    -55.0675055 -0.550675E+02  0.760E-02    1.41       0.0  T
   2    -55.0675107 -0.525907E-05  0.455E-02    1.42       1.0  T
   3    -55.0674870  0.237869E-04  0.264E-02    1.41       1.0  T
   4    -55.0675157 -0.287300E-04  0.388E-03    1.42       4.2  T
   5    -55.0675161 -0.402273E-06  0.133E-03    1.42      12.4  T
   6    -55.0675161 -0.325810E-07  0.766E-04    1.42      21.5  T
   7    -55.0675161 -0.638368E-08  0.403E-04    1.42      40.7  T
     SCC iter.                  ...        0 min,  0.018 sec
     gradient                   ...        0 min,  0.025 sec
 * total energy  :   -54.1488004 Eh     change       -0.2812475E-03 Eh
   gradient norm :     0.0043009 Eh/α   predicted    -0.1833868E-03 ( -34.80%)
   displ. norm   :     0.3443824 α      lambda       -0.3072110E-03
   maximum displ.:     0.2576691 α      in ANC's #1, #4, #3, ...

........................................................................
.............................. CYCLE   49 ..............................
........................................................................
   1    -55.0672767 -0.550673E+02  0.746E-02    1.41       0.0  T
   2    -55.0672815 -0.473063E-05  0.448E-02    1.42       1.0  T
   3    -55.0672560  0.255082E-04  0.268E-02    1.41       1.0  T
   4    -55.0672864 -0.304165E-04  0.432E-03    1.42       3.8  T
   5    -55.0672869 -0.498045E-06  0.170E-03    1.42       9.7  T
   6    -55.0672870 -0.892432E-07  0.726E-04    1.42      22.6  T
   7    -55.0672870 -0.532209E-08  0.372E-04    1.42      44.2  T
     SCC iter.                  ...        0 min,  0.018 sec
     gradient                   ...        0 min,  0.024 sec
 * total energy  :   -54.1490657 Eh     change       -0.2653052E-03 Eh
   gradient norm :     0.0051161 Eh/α   predicted    -0.1718314E-03 ( -35.23%)
   displ. norm   :     0.3456797 α      lambda       -0.2835632E-03
   maximum displ.:     0.2587793 α      in ANC's #1, #4, #3, ...

........................................................................
.............................. CYCLE   50 ..............................
........................................................................
   1    -55.0674980 -0.550675E+02  0.706E-02    1.41       0.0  T
   2    -55.0675014 -0.331157E-05  0.425E-02    1.42       1.0  T
   3    -55.0674778  0.235532E-04  0.248E-02    1.42       1.0  T
   4    -55.0675049 -0.270582E-04  0.409E-03    1.42       4.0  T
   5    -55.0675053 -0.465837E-06  0.161E-03    1.42      10.2  T
   6    -55.0675054 -0.879331E-07  0.621E-04    1.42      26.5  T
   7    -55.0675054 -0.290382E-08  0.328E-04    1.42      50.1  T
     SCC iter.                  ...        0 min,  0.018 sec
     gradient                   ...        0 min,  0.025 sec
 * total energy  :   -54.1493177 Eh     change       -0.2520263E-03 Eh
   gradient norm :     0.0065145 Eh/α   predicted    -0.1587243E-03 ( -37.02%)
   displ. norm   :     0.3504351 α      lambda       -0.2828022E-03
   maximum displ.:     0.2635201 α      in ANC's #1, #3, #4, ...

........................................................................
.............................. CYCLE   51 ..............................
........................................................................
   1    -55.0681951 -0.550682E+02  0.701E-02    1.42       0.0  T
   2    -55.0681972 -0.214289E-05  0.422E-02    1.42       1.0  T
   3    -55.0681732  0.240414E-04  0.243E-02    1.42       1.0  T
   4    -55.0681998 -0.266547E-04  0.383E-03    1.42       4.3  T
   5    -55.0682003 -0.440412E-06  0.148E-03    1.42      11.1  T
   6    -55.0682003 -0.747408E-07  0.583E-04    1.42      28.2  T
   7    -55.0682003 -0.154394E-08  0.300E-04    1.42      54.8  T
     SCC iter.                  ...        0 min,  0.018 sec
     gradient                   ...        0 min,  0.025 sec
 * total energy  :   -54.1495729 Eh     change       -0.2552031E-03 Eh
   gradient norm :     0.0064911 Eh/α   predicted    -0.1587675E-03 ( -37.79%)
   displ. norm   :     0.3658900 α      lambda       -0.2911259E-03
   maximum displ.:     0.2788481 α      in ANC's #1, #3, #2, ...

........................................................................
.............................. CYCLE   52 ..............................
........................................................................
   1    -55.0689560 -0.550690E+02  0.725E-02    1.42       0.0  T
   2    -55.0689571 -0.110018E-05  0.434E-02    1.42       1.0  T
   3    -55.0689375  0.195438E-04  0.215E-02    1.42       1.0  T
   4    -55.0689585 -0.210182E-04  0.288E-03    1.42       5.7  T
   5    -55.0689588 -0.246870E-06  0.116E-03    1.42      14.2  T
   6    -55.0689588 -0.363354E-07  0.564E-04    1.42      29.1  T
   7    -55.0689588 -0.156366E-08  0.240E-04    1.42      68.5  T
     SCC iter.                  ...        0 min,  0.018 sec
     gradient                   ...        0 min,  0.024 sec
 * total energy  :   -54.1498357 Eh     change       -0.2628247E-03 Eh
   gradient norm :     0.0052429 Eh/α   predicted    -0.1650518E-03 ( -37.20%)
   displ. norm   :     0.3744983 α      lambda       -0.2824141E-03
   maximum displ.:     0.2900174 α      in ANC's #1, #3, #2, ...

........................................................................
.............................. CYCLE   53 ..............................
........................................................................
   1    -55.0695814 -0.550696E+02  0.752E-02    1.42       0.0  T
   2    -55.0695817 -0.300959E-06  0.446E-02    1.42       1.0  T
   3    -55.0695695  0.121824E-04  0.170E-02    1.43       1.0  T
   4    -55.0695825 -0.130407E-04  0.160E-03    1.42      10.3  T
   5    -55.0695826 -0.446444E-07  0.797E-04    1.42      20.6  T
   6    -55.0695826 -0.150354E-08  0.436E-04    1.42      37.7  T
     SCC iter.                  ...        0 min,  0.015 sec
     gradient                   ...        0 min,  0.025 sec
 * total energy  :   -54.1500897 Eh     change       -0.2539994E-03 Eh
   gradient norm :     0.0034159 Eh/α   predicted    -0.1610114E-03 ( -36.61%)
   displ. norm   :     0.3609800 α      lambda       -0.2486014E-03
   maximum displ.:     0.2836524 α      in ANC's #1, #3, #2, ...

........................................................................
.............................. CYCLE   54 ..............................
........................................................................
   1    -55.0699042 -0.550699E+02  0.743E-02    1.43       0.0  T
   2    -55.0699046 -0.396365E-06  0.438E-02    1.43       1.0  T
[...]
C9-C4-C5=119.98                C6-C5-C4=118.67                H27-C5-C4=121.05               H27-C5-C6=120.28               
C7-C6-C5=120.87                H28-C6-C5=119.55               H28-C6-C7=119.58               C8-C7-C6=121.11                
H29-C7-C6=119.59               H29-C7-C8=119.30               C9-C8-C7=117.50                H30-C8-C7=121.24               
H30-C8-C9=121.26               C8-C9-C4=121.87                N10-C9-C4=108.82               N10-C9-C8=129.31               
C11-N10-C9=112.39              H31-N10-C9=124.31              H31-N10-C11=123.19             
 
 selected dihedral angles (degree)
 ---------------------------------
C3-C2-C1-H21= 56.68           C3-C2-C1-H22=176.55           C3-C2-C1-H23=296.80           C4-C2-C1-H21=294.54           
C4-C2-C1-H22= 54.41           C4-C2-C1-H23=174.66           C11-C2-C1-H21=183.01          C11-C2-C1-H22=302.88          
C11-C2-C1-H23= 63.13          H24-C3-C2-C1=283.82           H24-C3-C2-C4= 46.44           H24-C3-C2-C11=159.59          
H25-C3-C2-C1= 43.73           H25-C3-C2-C4=166.35           H25-C3-C2-C11=279.50          H26-C3-C2-C1=163.72           
H26-C3-C2-C4=286.34           H26-C3-C2-C11= 39.49          C5-C4-C2-C1= 62.60            C5-C4-C2-C3=300.36            
C5-C4-C2-C11=179.52           C9-C4-C2-C1=242.17            C9-C4-C2-C3=119.93            C9-C4-C2-C11=359.10           
C6-C5-C4-C2=179.39            C6-C5-C4-C9=359.86            H27-C5-C4-C2=359.31           H27-C5-C4-C9=179.77           
C7-C6-C5-C4=359.79            C7-C6-C5-H27=179.87           H28-C6-C5-C4=179.93           H28-C6-C5-H27=  0.00          
C8-C7-C6-C5=  0.35            C8-C7-C6-H28=180.21           H29-C7-C6-C5=180.33           H29-C7-C6-H28=  0.19          
C9-C8-C7-C6=359.88            C9-C8-C7-H29=179.90           H30-C8-C7-C6=180.04           H30-C8-C7-H29=  0.06          
C8-C9-C4-C2=180.75            C8-C9-C4-C5=  0.38            N10-C9-C4-C2=  1.14           N10-C9-C4-C5=180.77           
C4-C9-C8-C7=359.76            C4-C9-C8-H30=179.60           N10-C9-C8-C7=179.28           N10-C9-C8-H30=359.12          
C11-N10-C9-C4=359.08          C11-N10-C9-C8=179.51          H31-N10-C9-C4=182.69          H31-N10-C9-C8=  3.12          
           -------------------------------------------------
          |                Final Singlepoint                |
           -------------------------------------------------

          ...................................................
          :                      SETUP                      :
          :.................................................:
          :  # basis functions                  97          :
          :  # atomic orbitals                  97          :
          :  # shells                           57          :
          :  # electrons                       100          :
          :  max. iterations                   250          :
          :  Hamiltonian                  GFN2-xTB          :
          :  restarted?                      false          :
          :  GBSA solvation                  false          :
          :  PC potential                    false          :
          :  electronic temp.          300.0000000     K    :
          :  accuracy                    1.0000000          :
          :  -> integral cutoff          0.2500000E+02      :
          :  -> integral neglect         0.1000000E-07      :
          :  -> SCF convergence          0.1000000E-05 Eh   :
          :  -> wf. convergence          0.1000000E-03 e    :
          :  Broyden damping             0.4000000          :
          ...................................................

 iter      E             dE          RMSdq      gap      omega  full diag
   1    -55.0718533 -0.550719E+02  0.997E-05    1.44       0.0  T
   2    -55.0718533 -0.117240E-11  0.687E-05    1.44     239.4  T
   3    -55.0718533 -0.437836E-10  0.498E-05    1.44     330.4  T

   *** convergence criteria satisfied after 3 iterations ***

         #    Occupation            Energy/Eh            Energy/eV
      -------------------------------------------------------------
         1        2.0000           -0.6856030             -18.6562
       ...           ...                  ...                  ...
        44        2.0000           -0.4243575             -11.5474
        45        2.0000           -0.4196358             -11.4189
        46        2.0000           -0.4076648             -11.0931
        47        2.0000           -0.4061103             -11.0508
        48        2.0000           -0.3768479             -10.2546
        49        2.0000           -0.3624230              -9.8620
        50        2.0000           -0.3487231              -9.4892 (HOMO)
        51                         -0.2957528              -8.0478 (LUMO)
        52                         -0.2291953              -6.2367
        53                         -0.2272068              -6.1826
        54                         -0.2027185              -5.5163
        55                         -0.1937629              -5.2726
       ...                                ...                  ...
        97                          0.7391141              20.1123
      -------------------------------------------------------------
                  HL-Gap            0.0529703 Eh            1.4414 eV
             Fermi-level           -0.3222379 Eh           -8.7685 eV

 SCC (total)                   0 d,  0 h,  0 min,  0.042 sec
 SCC setup                      ...        0 min,  0.000 sec (  0.411%)
 Dispersion                     ...        0 min,  0.000 sec (  0.528%)
 classical contributions        ...        0 min,  0.000 sec (  0.162%)
 integral evaluation            ...        0 min,  0.008 sec ( 18.994%)
 iterations                     ...        0 min,  0.009 sec ( 20.965%)
 molecular gradient             ...        0 min,  0.024 sec ( 58.179%)
 printout                       ...        0 min,  0.000 sec (  0.662%)

         :::::::::::::::::::::::::::::::::::::::::::::::::::::
         ::                     SUMMARY                     ::
         :::::::::::::::::::::::::::::::::::::::::::::::::::::
         :: total energy             -54.151397160701 Eh    ::
         :: gradient norm              0.000198881629 Eh/a0 ::
         :: HOMO-LUMO gap              1.441395578737 eV    ::
         ::.................................................::
         :: SCC energy               -55.071853300327 Eh    ::
         :: -> isotropic ES            0.041222949978 Eh    ::
         :: -> anisotropic ES          0.007868598626 Eh    ::
         :: -> anisotropic XC          0.027877857292 Eh    ::
         :: -> dispersion             -0.042619951473 Eh    ::
         :: repulsion energy           0.920020797468 Eh    ::
         :: add. restraining           0.000006917235 Eh    ::
         :: total charge               0.000000000000 e     ::
         :::::::::::::::::::::::::::::::::::::::::::::::::::::

           -------------------------------------------------
          |                Property Printout                |
           -------------------------------------------------

    * Orbital Energies and Occupations

         #    Occupation            Energy/Eh            Energy/eV
      -------------------------------------------------------------
         1        2.0000           -0.6856030             -18.6562
       ...           ...                  ...                  ...
        38        2.0000           -0.4507146             -12.2646
        39        2.0000           -0.4477399             -12.1836
        40        2.0000           -0.4447193             -12.1014
        41        2.0000           -0.4365255             -11.8785
        42        2.0000           -0.4350219             -11.8375
        43        2.0000           -0.4291698             -11.6783
        44        2.0000           -0.4243575             -11.5474
        45        2.0000           -0.4196358             -11.4189
        46        2.0000           -0.4076648             -11.0931
        47        2.0000           -0.4061103             -11.0508
        48        2.0000           -0.3768479             -10.2546
        49        2.0000           -0.3624230              -9.8620
        50        2.0000           -0.3487231              -9.4892 (HOMO)
        51                         -0.2957528              -8.0478 (LUMO)
        52                         -0.2291953              -6.2367
        53                         -0.2272068              -6.1826
        54                         -0.2027185              -5.5163
        55                         -0.1937629              -5.2726
        56                         -0.1706588              -4.6439
        57                         -0.0919092              -2.5010
        58                         -0.0809939              -2.2040
        59                          0.0078668               0.2141
        60                          0.0482745               1.3136
        61                          0.0670903               1.8256
       ...                                ...                  ...
        97                          0.7391141              20.1123
      -------------------------------------------------------------
                  HL-Gap            0.0529703 Eh            1.4414 eV
             Fermi-level           -0.3222379 Eh           -8.7685 eV

     #   Z          covCN         q      C6AA      α(0)
     1   6 C        3.759    -0.102    22.507     6.764
     2   6 C        3.939     0.023    20.125     6.375
     3   6 C        3.758    -0.101    22.474     6.759
     4   6 C        3.050    -0.012    28.268     8.720
     5   6 C        2.917    -0.032    28.790     8.799
     6   6 C        2.922    -0.041    29.009     8.832
     7   6 C        2.925    -0.031    28.768     8.796
     8   6 C        2.912    -0.056    29.381     8.888
     9   6 C        3.002     0.062    26.596     8.460
    10   7 N        2.746    -0.116    23.528     7.204
    11   6 C        2.971     0.075    26.310     8.414
    12   6 C        2.896    -0.063    29.572     8.916
    13   6 C        2.906     0.001    28.001     8.677
    14   6 C        2.955    -0.024    28.607     8.773
    15   6 C        2.922    -0.036    28.902     8.816
    16   6 C        2.910    -0.041    29.014     8.832
    17   6 C        2.909    -0.022    28.557     8.763
    18   6 C        2.907    -0.066    29.641     8.927
    19   6 C        2.826     0.221    23.359     7.919
    20   8 O        0.858    -0.432    22.331     6.336
    21   1 H        0.925     0.049     2.332     2.388
    22   1 H        0.925     0.036     2.498     2.472
    23   1 H        0.925     0.045     2.382     2.413
    24   1 H        0.925     0.044     2.402     2.424
    25   1 H        0.925     0.047     2.355     2.400
    26   1 H        0.925     0.059     2.212     2.326
    27   1 H        0.926     0.034     2.531     2.488
    28   1 H        0.926     0.034     2.530     2.487
    29   1 H        0.926     0.035     2.510     2.478
    30   1 H        0.926     0.031     2.572     2.508
    31   1 H        0.860     0.166     1.297     1.784
    32   1 H        0.925     0.041     2.438     2.442
    33   1 H        0.924     0.041     2.436     2.441
    34   1 H        0.925     0.026     2.651     2.546
    35   1 H        0.926     0.028     2.612     2.527
    36   1 H        0.925     0.031     2.567     2.506
    37   1 H        0.926     0.045     2.382     2.413

 Mol. C6AA /au·bohr⁶  :      16697.958611
 Mol. C8AA /au·bohr⁸  :     406632.185150
 Mol. α(0) /au        :        205.010982


Wiberg/Mayer (AO) data.
largest (>0.10) Wiberg bond orders for each atom

 ---------------------------------------------------------------------------
     #   Z sym  total        # sym  WBO       # sym  WBO       # sym  WBO
 ---------------------------------------------------------------------------
     1   6 C    3.993 --    22 H    0.987    21 H    0.983    23 H    0.981
                             2 C    0.973
     2   6 C    3.990 --     4 C    0.987    11 C    0.978     1 C    0.973
                             3 C    0.972
     3   6 C    3.991 --    26 H    0.983    24 H    0.983    25 H    0.975
                             2 C    0.972
     4   6 C    3.981 --     5 C    1.456     9 C    1.307     2 C    0.987
                             7 C    0.103
     5   6 C    3.991 --     4 C    1.456     6 C    1.410    27 H    0.968
                             8 C    0.100
     6   6 C    3.969 --     7 C    1.446     5 C    1.410    28 H    0.972
     7   6 C    3.990 --     6 C    1.446     8 C    1.434    29 H    0.971
                             4 C    0.103
     8   6 C    3.973 --     7 C    1.434     9 C    1.377    30 H    0.969
                             5 C    0.100
     9   6 C    3.962 --     8 C    1.377     4 C    1.307    10 N    1.114
    10   7 N    3.508 --    11 C    1.189     9 C    1.114    31 H    0.940
    11   6 C    3.940 --    12 C    1.576    10 N    1.189     2 C    0.978
    12   6 C    3.965 --    11 C    1.576    13 C    1.239    32 H    0.940
    13   6 C    3.978 --    14 C    1.505    12 C    1.239    33 H    0.950
    14   6 C    3.977 --    13 C    1.505    15 C    1.200    19 C    1.044
    15   6 C    3.985 --    16 C    1.641    14 C    1.200    34 H    0.966
                            18 C    0.114
    16   6 C    3.962 --    15 C    1.641    17 C    1.218    35 H    0.971
    17   6 C    3.977 --    18 C    1.679    16 C    1.218    36 H    0.969
    18   6 C    3.982 --    17 C    1.679    19 C    1.111    37 H    0.967
                            15 C    0.114
    19   6 C    3.949 --    20 O    1.668    18 C    1.111    14 C    1.044
    20   8 O    2.000 --    19 C    1.668
    21   1 H    0.998 --     1 C    0.983
    22   1 H    0.999 --     1 C    0.987
    23   1 H    0.997 --     1 C    0.981
    24   1 H    0.998 --     3 C    0.983
    25   1 H    0.997 --     3 C    0.975
    26   1 H    0.997 --     3 C    0.983
    27   1 H    0.998 --     5 C    0.968
    28   1 H    0.998 --     6 C    0.972
    29   1 H    0.998 --     7 C    0.971
    30   1 H    0.999 --     8 C    0.969
    31   1 H    0.972 --    10 N    0.940
    32   1 H    0.993 --    12 C    0.940
    33   1 H    0.996 --    13 C    0.950
    34   1 H    0.999 --    15 C    0.966
    35   1 H    0.998 --    16 C    0.971
    36   1 H    0.999 --    17 C    0.969
    37   1 H    0.997 --    18 C    0.967
 ---------------------------------------------------------------------------

Topologies differ in total number of bonds
Writing topology from bond orders to xtbtopo.mol

molecular dipole:
                 x           y           z       tot (Debye)
 q only:       -1.141      -0.398      -1.134
   full:       -0.964      -0.352      -1.334       4.277
molecular quadrupole (traceless):
                xx          xy          yy          xz          yz          zz
 q only:       -2.444      -7.801       3.092      -4.538      -7.748      -0.648
  q+dip:       -2.087     -12.078       4.522      -5.809     -12.355      -2.435
   full:       -2.294      -9.621       3.995      -5.167     -10.695      -1.701

           -------------------------------------------------
          |                Geometry Summary                 |
           -------------------------------------------------

      molecular mass/u    :      263.3343471
   center of mass at/Å    :        0.0950965       0.2179134       0.0419115
  moments of inertia/u·Å² :        0.5557425E+03   0.2652673E+04   0.2752625E+04
rotational constants/cm⁻¹ :        0.3033353E-01   0.6354961E-02   0.6124203E-02

 * 35 selected distances

     #   Z          #   Z                                           value/Å
     1   6 C        2   6 C                                       1.5337960 (max)
     2   6 C        3   6 C                                       1.5317840
     4   6 C        5   6 C                                       1.3758095
     5   6 C        6   6 C                                       1.3907177
     6   6 C        7   6 C                                       1.3853741
     7   6 C        8   6 C                                       1.3871286
     4   6 C        9   6 C                                       1.3979415
     8   6 C        9   6 C                                       1.3827639
     9   6 C       10   7 N                                       1.3771784
    10   7 N       11   6 C                                       1.3678469
    11   6 C       12   6 C                                       1.3576007
    12   6 C       13   6 C                                       1.4205849
    13   6 C       14   6 C                                       1.3778102
    14   6 C       15   6 C                                       1.4311731
    15   6 C       16   6 C                                       1.3535557
    16   6 C       17   6 C                                       1.4208295
    17   6 C       18   6 C                                       1.3496990
    19   6 C       20   8 O                                       1.2292378
     1   6 C       21   1 H                                       1.0869866
     1   6 C       22   1 H                                       1.0884114
     1   6 C       23   1 H                                       1.0873646
     3   6 C       24   1 H                                       1.0877433
     3   6 C       25   1 H                                       1.0864275
     3   6 C       26   1 H                                       1.0866654
     5   6 C       27   1 H                                       1.0797832
     6   6 C       28   1 H                                       1.0793781
     7   6 C       29   1 H                                       1.0797551
     8   6 C       30   1 H                                       1.0794056
    10   7 N       31   1 H                                       1.0066451 (min)
    12   6 C       32   1 H                                       1.0876588
    13   6 C       33   1 H                                       1.0902826
    15   6 C       34   1 H                                       1.0825724
    16   6 C       35   1 H                                       1.0795857
    17   6 C       36   1 H                                       1.0814141
    18   6 C       37   1 H                                       1.0802242

 * 5 distinct bonds (by element types)

   Z      Z             #   av. dist./Å        max./Å        min./Å
   1 H    6 C          16     1.0839787     1.0902826     1.0793781
   6 C    6 C          15     1.4064379     1.5337960     1.3496990
   1 H    7 N           1     1.0066451     1.0066451     1.0066451
   6 C    7 N           2     1.3725127     1.3771784     1.3678469
   6 C    8 O           1     1.2292378     1.2292378     1.2292378


optimized geometry written to: xtbopt.xyz


           -------------------------------------------------
          | TOTAL ENERGY              -54.151397160701 Eh   |
          | GRADIENT NORM               0.000198881629 Eh/α |
          | HOMO-LUMO GAP               1.441395578737 eV   |
           -------------------------------------------------

------------------------------------------------------------------------
 * finished run on 2026/05/06 at 06:43:13.561     
------------------------------------------------------------------------
 total:
 * wall-time:     0 d,  0 h,  0 min,  4.503 sec
 *  cpu-time:     0 d,  0 h,  0 min,  4.354 sec
 * ratio c/w:     0.967 speedup
 SCF:
 * wall-time:     0 d,  0 h,  0 min,  0.069 sec
 *  cpu-time:     0 d,  0 h,  0 min,  0.069 sec
 * ratio c/w:     0.991 speedup
 ANC optimizer:
 * wall-time:     0 d,  0 h,  0 min,  4.343 sec
 *  cpu-time:     0 d,  0 h,  0 min,  4.262 sec
 * ratio c/w:     0.982 speedup

