  37
  energy= 0.00000000000
 C         -1.7016046800       -2.0604433800       -0.0319216200
 C         -1.0946266000       -0.6721134500       -0.3152232000
 C         -0.6154954100       -0.6172340900       -1.7719135000
 C         -2.1511207700        0.3682077500       -0.0208370400
 C         -3.2811967900        0.7169879100       -0.7473186300
 C         -4.1277050500        1.6977676000       -0.2267866000
 C         -3.8443406800        2.3024992100        1.0068798900
 C         -2.7064174400        1.9388868400        1.7311412100
 C         -1.8583852900        0.9863556900        1.1952503500
 N         -0.6954445800        0.4805240800        1.8254705100
 C          0.0167159100       -0.2233814100        0.7368823300
 C          0.7434950400       -1.3596486500        1.4181361200
 C          2.0373202700       -1.6336372700        1.2252027700
 C          2.7746106400       -0.7725757100        0.3166615800
 C          4.0921762400       -1.0682467000       -0.0474619600
 C          4.7955356400       -0.2096266200       -0.8955400500
 C          4.1886608800        0.9505732300       -1.3747666900
 C          2.8767871900        1.2511471000       -1.0092419100
 C          2.1692696100        0.3868627600       -0.1728882400
 O          0.8936883500        0.7618437100        0.1447020900
 H         -2.0714674200       -2.1463618100        0.9966556600
 H         -0.9667757900       -2.8559725200       -0.1977747200
 H         -2.5527342900       -2.2635429100       -0.6934366600
 H          0.2359621700       -1.2882334400       -1.9284050200
 H         -1.4072585100       -0.9270929000       -2.4641921400
 H         -0.3167471500        0.3936984600       -2.0708263800
 H         -3.5146324600        0.2374837200       -1.6921478300
 H         -5.0205109400        1.9878952700       -0.7754102400
 H         -4.5202767500        3.0540772400        1.4067888600
 H         -2.4970983600        2.3924934100        2.6936756000
 H         -0.1242596000        1.2476707300        2.1683029200
 H          0.1662058100       -1.9747550500        2.1022361700
 H          2.5350953100       -2.4559130700        1.7246929100
 H          4.5825395200       -1.9633960200        0.3268536200
 H          5.8194992000       -0.4428552700       -1.1766999700
 H          4.7373760400        1.6227315900       -2.0294080700
 H          2.4031607400        2.1573239600       -1.3773321200
