37
 energy: -40.566348834409 gnorm: 10.439745892434 xtb: 6.5.1 (579679a)
C           -1.70160468000000       -2.06044338000000       -0.03192162000000
C           -1.09462660000000       -0.67211345000000       -0.31522320000000
C           -0.61549541000000       -0.61723409000000       -1.77191350000000
C           -2.15112077000000        0.36820775000000       -0.02083704000000
C           -3.28119679000000        0.71698791000000       -0.74731863000000
C           -4.12770505000000        1.69776760000000       -0.22678660000000
C           -3.84434068000000        2.30249921000000        1.00687989000000
C           -2.70641744000000        1.93888684000000        1.73114121000000
C           -1.85838529000000        0.98635569000000        1.19525035000000
N           -0.69544458000000        0.48052408000000        1.82547051000000
C            0.01671591000000       -0.22338141000000        0.73688233000000
C            0.74349504000000       -1.35964865000000        1.41813612000000
C            2.03732027000000       -1.63363727000000        1.22520277000000
C            2.77461064000000       -0.77257571000000        0.31666158000000
C            4.09217624000000       -1.06824670000000       -0.04746196000000
C            4.79553564000000       -0.20962662000000       -0.89554005000000
C            4.18866088000000        0.95057323000000       -1.37476669000000
C            2.87678719000000        1.25114710000000       -1.00924191000000
C            2.16926961000000        0.38686276000000       -0.17288824000000
O            0.89368835000000        0.76184371000000        0.14470209000000
H           -2.07146742000000       -2.14636181000000        0.99665566000000
H           -0.96677579000000       -2.85597252000000       -0.19777472000000
H           -2.55273429000000       -2.26354291000000       -0.69343666000000
H            0.23596217000000       -1.28823344000000       -1.92840502000000
H           -1.40725851000000       -0.92709290000000       -2.46419214000000
H           -0.31674715000000        0.39369846000000       -2.07082638000000
H           -3.51463246000000        0.23748372000000       -1.69214783000000
H           -5.02051094000000        1.98789527000000       -0.77541024000000
H           -4.52027675000000        3.05407724000000        1.40678886000000
H           -2.49709836000000        2.39249341000000        2.69367560000000
H           -0.12425960000000        1.24767073000000        2.16830292000000
H            0.16620581000000       -1.97475505000000        2.10223617000000
H            2.53509531000000       -2.45591307000000        1.72469291000000
H            4.58253952000000       -1.96339602000000        0.32685362000000
H            5.81949920000000       -0.44285527000000       -1.17669997000000
H            4.73737604000000        1.62273159000000       -2.02940807000000
H            2.40316074000000        2.15732396000000       -1.37733212000000
37
 energy: -47.485056837013 gnorm: 7.148391430268 xtb: 6.5.1 (579679a)
C           -1.70150601487037       -2.06066635722986       -0.03176709731733
C           -1.09479497622464       -0.67196879457843       -0.31520642534001
C           -0.61533005929501       -0.61722273870677       -1.77206058951327
C           -2.15120367699862        0.36826457690266       -0.02089955056655
C           -3.28114829058368        0.71712475091640       -0.74700200229080
C           -4.12754760163969        1.69786880406061       -0.22647039115799
C           -3.84422823989761        2.30221453746840        1.00658832696560
C           -2.70679607702236        1.93911661804241        1.73099233595863
C           -1.85858684269150        0.98637885946909        1.19559080887309
N           -0.69581589866802        0.48079017144671        1.82421138435618
C           -0.16135857749287       -0.42562776359206        0.85811690382205
C            0.74368669779394       -1.36011308799540        1.41806529638960
C            2.03691718219335       -1.63325699226293        1.22501631213740
C            2.77512784364481       -0.77297935455487        0.31674772485875
C            4.09236491668918       -1.06783277838908       -0.04779933692938
C            4.79535586486239       -0.20972586810511       -0.89541452135740
C            4.18849767694318        0.95040347014858       -1.37456500592303
C            2.87711033116063        1.25108546892646       -1.00934463874286
C            2.16904162015300        0.38727839776914       -0.17309940474907
O            1.07206130255567        0.96319418007660        0.02400214339391
H           -2.07135015939360       -2.14621790569973        0.99648954438889
H           -0.96682441012708       -2.85580912815099       -0.19772956275071
H           -2.55254018048785       -2.26331983229915       -0.69336394110171
H            0.23586935928386       -1.28814762924598       -1.92831914669271
H           -1.40719475895720       -0.92708207843760       -2.46391621618553
H           -0.31675802324375        0.39354073817553       -2.07063298588821
H           -3.51456255302357        0.23755928486056       -1.69201527226384
H           -5.02032813113619        1.98786952216607       -0.77531752939267
H           -4.52013786240460        3.05396192146990        1.40669300501871
H           -2.49709069174458        2.39248382444241        2.69353597106732
H           -0.12423280229397        1.24750459251640        2.16849970032459
H            0.16611910017681       -1.97447592672931        2.10207769762697
H            2.53506545376141       -2.45576963676479        1.72461765826432
H            4.58235186426565       -1.96326494083974        0.32683736772505
H            5.81930478136639       -0.44284851072311       -1.17664423280108
H            4.73726370774390        1.62258037087659       -2.02928912287790
H            2.40319812560260        2.15710922457040       -1.37722520732904
37
 energy: -51.705796787182 gnorm: 4.105930684356 xtb: 6.5.1 (579679a)
C           -1.70229267832954       -2.06173094565494       -0.03215698385906
C           -1.09663007362715       -0.67260612551363       -0.31436966523107
C           -0.61453199398446       -0.61715650804096       -1.77204318243021
C           -2.15138999379017        0.36841997943488       -0.02109572739649
C           -3.28112840814817        0.71740511719601       -0.74656980266184
C           -4.12727819352181        1.69798728593498       -0.22598203424494
C           -3.84408336853215        2.30181764028746        1.00615403807949
C           -2.70733190861895        1.93952526347456        1.73077329999001
C           -1.85927162711119        0.98679752190765        1.19596051547548
N           -0.69769689721834        0.47970180645314        1.82128797690891
C           -0.33246172161719       -0.61547372967357        0.97566159670965
C            0.74414467049854       -1.36364959707619        1.41975849399478
C            2.03702199383494       -1.63210009124498        1.22378539601240
C            2.77529593446390       -0.77444232582963        0.31760085506990
C            4.09286948153360       -1.06695671043753       -0.04862786464820
C            4.79521625431565       -0.21031142657893       -0.89499093475821
C            4.18785617275890        0.95067523600849       -1.37443092742067
C            2.88235921076289        1.25086861583279       -1.01158771216157
C            2.17303884817711        0.38913622076783       -0.17542698539312
O            1.23734288994289        1.15795983835655       -0.09047197664758
H           -2.07122909968990       -2.14603687711542        0.99620661259727
H           -0.96688192906908       -2.85548755343304       -0.19767168583878
H           -2.55230818853070       -2.26312186046833       -0.69326376447384
H            0.23571333336095       -1.28793892207645       -1.92816064218701
H           -1.40715961440837       -0.92707562258433       -2.46330494578137
H           -0.31674668643634        0.39323731708072       -2.07017164048763
H           -3.51444287189379        0.23770835803672       -1.69176750114347
H           -5.01999930706963        1.98780643819730       -0.77513214614939
H           -4.51989034354968        3.05372120199959        1.40652843603014
H           -2.49710429623735        2.39245998718881        2.69329959760340
H           -0.12378621544526        1.24629225569274        2.16865568408191
H            0.16642563901216       -1.97516424633068        2.10280380545767
H            2.53488753916759       -2.45539595501981        1.72461390898053
H            4.58202746332906       -1.96305078670973        0.32678929356372
H            5.81900559454628       -0.44282236370540       -1.17653781642040
H            4.73719103455129        1.62234455131023       -2.02916574256400
H            2.40324935657346        2.15665700233308       -1.37694982865643
37
 energy: -53.493788897838 gnorm: 1.625987382507 xtb: 6.5.1 (579679a)
C           -1.70452522001480       -2.06406482536921       -0.03339862800056
C           -1.10018659034837       -0.67402528701210       -0.31244760183906
C           -0.61297348597049       -0.61706888933267       -1.77172243223254
C           -2.15159252921556        0.36859146842757       -0.02158700082560
C           -3.28110343121244        0.71791815022362       -0.74600579823036
C           -4.12687019288995        1.69817282266298       -0.22538673542047
C           -3.84379462253640        2.30137460096677        1.00558382912851
C           -2.70817907569656        1.94037677281485        1.73041398607605
C           -1.85983208579556        0.98747867592936        1.19656169541403
N           -0.70168643566778        0.47661992651085        1.81653003215407
C           -0.47030966981081       -0.77624193223945        1.07468801004997
C            0.74413774019158       -1.36965266300905        1.42303141568480
C            2.03815527304556       -1.63035485347658        1.22113830388513
C            2.77376896019528       -0.77695173029309        0.31958082043874
C            4.09435916535126       -1.06554122779652       -0.05030996828264
C            4.79513343283521       -0.21214748700090       -0.89388178187727
C            4.18711479450061        0.95171274990924       -1.37500703407636
C            2.89659574089094        1.24967762678464       -1.01817761077150
C            2.18179116442102        0.39098819723612       -0.17957730210093
O            1.35866961632591        1.33364955594977       -0.18201789727566
H           -2.07132529759543       -2.14592141135404        0.99576765188265
H           -0.96697093092373       -2.85499599138739       -0.19757276762714
H           -2.55225604026478       -2.26304513473833       -0.69320025811982
H            0.23552051837379       -1.28766502910371       -1.92792311484456
H           -1.40714355964445       -0.92708274790217       -2.46226516520751
H           -0.31666550607254        0.39281316427120       -2.06939620715957
H           -3.51425719864010        0.23797401159054       -1.69138551838731
H           -5.01946496339919        1.98775924360012       -0.77486774658020
H           -4.51947544496801        3.05340988313603        1.40622808842981
H           -2.49711472204895        2.39249268219184        2.69291218775104
H           -0.12302831387393        1.24372717791075        2.16881658914744
H            0.16761534107562       -1.97738072452938        2.10556948670493
H            2.53455252616119       -2.45475363954058        1.72472217201119
H            4.58147341521990       -1.96274436913343        0.32675184263290
H            5.81859328676245       -0.44286854988857       -1.17631515804525
H            4.73732548707639        1.62195155510065       -2.02906369064858
H            2.40394885416308        2.15581821789028       -1.37678669383840
37
 energy: -53.827632428068 gnorm: 0.263456044270 xtb: 6.5.1 (579679a)
C           -1.70875392751720       -2.06781380792472       -0.03573987572753
C           -1.10529055165436       -0.67716156126729       -0.30962840444414
C           -0.61093743900861       -0.61705218896993       -1.77076788824505
C           -2.15185959753761        0.36885906667172       -0.02226382378502
C           -3.28101094936830        0.71861566417255       -0.74524804357743
C           -4.12628940132076        1.69860127061102       -0.22475807807883
C           -3.84328578266030        2.30121785521566        1.00461249982148
C           -2.70905063597568        1.94196457519363        1.72969799268963
C           -1.85988044824264        0.98837151514068        1.19707379733107
N           -0.70632526282524        0.47093044870343        1.80955382618032
C           -0.53654181444663       -0.88460553617688        1.11787051201801
C            0.74413144868051       -1.37774881005003        1.42784002925770
C            2.03722935118972       -1.62901549842944        1.21915997221833
C            2.77113132777475       -0.77664722778876        0.32085649483042
C            4.09627219749264       -1.06428489958718       -0.05211454697582
C            4.79500328401973       -0.21449983867881       -0.89260738595033
C            4.18910550484223        0.95219019532840       -1.37594864929109
C            2.91368008534496        1.24685153760608       -1.02977052306202
C            2.18730928836205        0.39339139723509       -0.18423260394194
O            1.40836560904573        1.46694098472953       -0.21124511518004
H           -2.07192352933632       -2.14583030798831        0.99543885445740
H           -0.96723056409430       -2.85439371034845       -0.19697081587600
H           -2.55280564183431       -2.26330451948013       -0.69297854250862
H            0.23521912271977       -1.28773439850217       -1.92744158373095
H           -1.40723099732842       -0.92740255480838       -2.46060280541499
H           -0.31661740291672        0.39199018785640       -2.06850011282247
H           -3.51408066507322        0.23822884414226       -1.69076068925209
H           -5.01869845297313        1.98781672759705       -0.77462647318227
H           -4.51873269338479        3.05344222876842        1.40550693432035
H           -2.49690803238140        2.39313798662697        2.69212462625417
H           -0.12152363748212        1.24028063189537        2.16810415099212
H            0.17057019390715       -1.98115096887827        2.11104391023306
H            2.53429700924275       -2.45384766262940        1.72482304668777
H            4.58058226732102       -1.96237540339361        0.32682287627545
H            5.81780236483347       -0.44354379258049       -1.17632638782682
H            4.73757404318778        1.62110599735509       -2.02903820142525
H            2.40670432939781        2.15447556263289       -1.37895897326855
37
 energy: -53.834942533771 gnorm: 0.302901963274 xtb: 6.5.1 (579679a)
C           -1.71246523074209       -2.07172770684785       -0.03357518022754
C           -1.11528756685758       -0.68305762808310       -0.31244982886107
C           -0.61082000665578       -0.62008934093767       -1.76862906417883
C           -2.15253273829831        0.36883365521293       -0.02186471103603
C           -3.28162729265603        0.71740231362565       -0.74343049328701
C           -4.12631565314679        1.69793728694449       -0.22405588368418
C           -3.84253182793652        2.30219522759809        1.00296827217044
C           -2.70861198682237        1.94562288660551        1.72807119332082
C           -1.85886043371018        0.99032707433113        1.19733942670720
N           -0.70684183583831        0.46419111285568        1.79713978296801
C           -0.59431060575623       -0.95435780837204        0.95139700112239
C            0.74207303471795       -1.37997451426057        1.42920169439653
C            2.03705385680073       -1.62556039099569        1.21954447759997
C            2.76931133333326       -0.77447044028980        0.31968412115533
C            4.09757465197735       -1.06304309779565       -0.05487872114688
C            4.79439422072630       -0.21672679186316       -0.89486352159820
C            4.19149328452665        0.95034589063885       -1.38171169935713
C            2.92176219380327        1.24356015811630       -1.04177069334090
C            2.18897856614918        0.39911927900714       -0.18738451724653
O            1.46664307982239        1.56292848832749       -0.01828512874048
H           -2.07165705638844       -2.14472306832004        1.00002202439249
H           -0.96715629444948       -2.85449220456556       -0.19125176057530
H           -2.55385163037954       -2.26533573145024       -0.68759068602989
H            0.23386491174130       -1.29094472632514       -1.92514992374383
H           -1.40889492786477       -0.93184350110439       -2.45674682333394
H           -0.31812275718683        0.38800582780085       -2.06814459957733
H           -3.51522693738397        0.23515591843132       -1.68805852098213
H           -5.01896526858384        1.98581210070200       -0.77396735897794
H           -4.51760008734070        3.05501429416093        1.40328879501128
H           -2.49515833595718        2.39764481996915        2.68946387548426
H           -0.11885281283000        1.23949816811238        2.16473249184096
H            0.17532083785926       -1.98135041283134        2.11913136333926
H            2.53583424549765       -2.44967760772235        1.72711142136265
H            4.58035173009234       -1.96078923149547        0.32665886508119
H            5.81638463406901       -0.44507273421723       -1.17986599650082
H            4.73612887488538        1.61793840390692       -2.03516987828440
H            2.40852183078294        2.15170402113046       -1.38690981524243
37
 energy: -53.850931254467 gnorm: 0.327324552003 xtb: 6.5.1 (579679a)
C           -1.72093318925272       -2.07924985293677       -0.04318356250440
C           -1.11903571627690       -0.68578671722188       -0.30664641318057
C           -0.60660563840099       -0.61700958720659       -1.76775961021596
C           -2.15302810824528        0.36954716313934       -0.02383499796252
C           -3.28071749999760        0.72012356950334       -0.74365531275362
C           -4.12509969354663        1.69957805718506       -0.22344618518102
C           -3.84222206614835        2.30079720986812        1.00260054329074
C           -2.71105031527650        1.94552862838149        1.72818276623451
C           -1.85842922809545        0.98861183177293        1.19814288920563
N           -0.71964955755832        0.45762028116294        1.79719980904689
C           -0.52954439339361       -0.92610078858297        1.12835115460043
C            0.73868495580160       -1.39726682898007        1.43791251791247
C            2.03379977229697       -1.62678119168926        1.21513191818009
C            2.76413252395392       -0.77187238076820        0.32187495429457
C            4.09969677505138       -1.06192052415617       -0.05610762252845
C            4.79519825228651       -0.21874366341534       -0.88967238285324
C            4.20082266782339        0.95171148575143       -1.37880107855435
C            2.93975722362382        1.23998072612748       -1.05447668734561
C            2.19004822137405        0.41318115758726       -0.19420415842639
O            1.39127120219397        1.56352396211262       -0.18496132117422
H           -2.07477244898601       -2.14689806867562        0.99363854614702
H           -0.96788369889654       -2.85334384300852       -0.19637898715165
H           -2.55567629016502       -2.26474377783058       -0.69418946779939
H            0.23496758251826       -1.28775698062865       -1.92644050872739
H           -1.40701678041442       -0.92768428822235       -2.45666929279443
H           -0.31633909063511        0.39051934208068       -2.06610399559974
H           -3.51360717830042        0.23909834474457       -1.68932547556628
H           -5.01680719565393        1.98791750288339       -0.77391088843508
H           -4.51709598091380        3.05305480485950        1.40399947781169
H           -2.49665648715201        2.39424313424700        2.69047660746338
H           -0.11897127775724        1.22902159356696        2.16559776654234
H            0.17975400483139       -1.99269986756921        2.12674996897419
H            2.53402518539964       -2.45110663239320        1.72492034214219
H            4.57820792612748       -1.96125073882442        0.32675311545713
H            5.81598241662363       -0.44485564696898       -1.17607727363662
H            4.73866804438068        1.61972137364325       -2.02863703224146
H            2.41612508078013        2.15129120046142       -1.38705012267091
37
 energy: -53.871095604882 gnorm: 0.180060620677 xtb: 6.5.1 (579679a)
C           -1.72500429590291       -2.08388454307012       -0.04559078147235
C           -1.12487008009913       -0.68884956741527       -0.30763533400014
C           -0.60545732149118       -0.61709790380368       -1.76656830877385
C           -2.15384237210893        0.36952150165328       -0.02420333867058
C           -3.28084830613273        0.72019946009354       -0.74304711575675
C           -4.12500141417342        1.69928861398383       -0.22282123428917
C           -3.84221343051272        2.30012132760426        1.00237412869581
C           -2.71171963199410        1.94610391168935        1.72796994101293
C           -1.85846765169196        0.98822126667834        1.19843179352939
N           -0.72531440182395        0.45379773112580        1.79487966074325
C           -0.54005958964182       -0.88647245799363        1.12456979513420
C            0.73462707814471       -1.40269960420330        1.43998797381763
C            2.03295368817703       -1.62576570953237        1.21305919777699
C            2.76219866045225       -0.76937524980260        0.32174597576177
C            4.10012119617443       -1.06066282457667       -0.05734182777013
C            4.79574086770636       -0.21914640953509       -0.88911398306388
C            4.20639404144362        0.95171502380651       -1.38034445200930
C            2.94489231664050        1.23830522322217       -1.06262805346326
C            2.19209853533312        0.42322205746804       -0.19781110535146
O            1.40487332267303        1.54088927916369       -0.16644912091598
H           -2.07577232162776       -2.14795876232504        0.99269572457365
H           -0.96775435041188       -2.85326647384863       -0.19656966474529
H           -2.55710333736845       -2.26587724803851       -0.69526468857229
H            0.23515066161285       -1.28758107596441       -1.92614431868426
H           -1.40673632762883       -0.92769406786955       -2.45519103455350
H           -0.31631957846683        0.39022398989638       -2.06501582344600
H           -3.51354390514356        0.23909755850687       -1.68859890408065
H           -5.01642263552166        1.98726354122127       -0.77322814473639
H           -4.51690120953054        3.05203797525896        1.40391314605883
H           -2.49685541685183        2.39402205054399        2.69020825356320
H           -0.11854541444845        1.22360627411228        2.16448155832496
H            0.18367094862495       -1.99755544718567        2.13316396181856
H            2.53437769494735       -2.44960287503671        1.72457001112179
H            4.57758585984926       -1.96014783157021        0.32631791971524
H            5.81545963089162       -0.44442348548421       -1.17621370262545
H            4.73921106691323        1.62031781118174       -2.02876231220086
H            2.41939742298831        2.15010693004534       -1.38982579246670
37
 energy: -53.906945763900 gnorm: 0.187055708999 xtb: 6.5.1 (579679a)
C           -1.74340444622185       -2.10287749691225       -0.05663559731782
C           -1.14826381398363       -0.70294631406977       -0.30612408726007
C           -0.59987983928799       -0.61724292769308       -1.76117847958894
C           -2.15679805338868        0.36995877817325       -0.02622678344901
C           -3.28103385494378        0.72177189634659       -0.74075665771248
C           -4.12387262162413        1.69946726919297       -0.22064890110510
C           -3.84152784850758        2.29851763401554        1.00046143799018
C           -2.71428236222777        1.94975059199666        1.72633665208065
C           -1.85912744277519        0.98798940672242        1.19904942901952
N           -0.74749424704709        0.43462651300808        1.78109882982411
C           -0.55207545216681       -0.82750909800509        1.13502410353601
C            0.72023195810773       -1.43041548707285        1.45271077718370
C            2.02775577997980       -1.62185197321828        1.20490408246362
C            2.75243467575139       -0.75882818634896        0.32168501893271
C            4.10219452372494       -1.05615299867206       -0.06236908249085
C            4.79804377352885       -0.22322910407452       -0.88568612198027
C            4.22991883522664        0.95078920191165       -1.38617803484425
C            2.97508533098717        1.22953173453396       -1.10080416581911
C            2.19801432235584        0.46365931707518       -0.21353719887367
O            1.41851405763995        1.56329406161467       -0.11542617129173
H           -2.08054916522964       -2.15150716864611        0.98854063163144
H           -0.96807894127830       -2.85236912020585       -0.19702604257675
H           -2.56361364911581       -2.26994418842582       -0.69979546642446
H            0.23565970994924       -1.28708500230556       -1.92469238399661
H           -1.40560650440198       -0.92756855855403       -2.44865968224595
H           -0.31583117522284        0.38873902874690       -2.06037227046304
H           -3.51292230985178        0.24011917681865       -1.68588513875005
H           -5.01393611394917        1.98605086662583       -0.77111793109192
H           -4.51515745222782        3.04930888665376        1.40256933807399
H           -2.49725394408679        2.39420822721362        2.68842087542304
H           -0.11628779391634        1.20061067129226        2.15981447581610
H            0.19978439006172       -2.01894962943512        2.16102206687738
H            2.53476318748541       -2.44393732397326        1.72339747369150
H            4.57410867820114       -1.95681299272836        0.32526916617809
H            5.81311900495756       -0.44468727677651       -1.17601297435592
H            4.74233421264320        1.62106126471932       -2.02877932535517
H            2.43503459085439        2.14446031045618       -1.40239186172890
37
 energy: -53.946070825454 gnorm: 0.235327258746 xtb: 6.5.1 (579679a)
C           -1.77340747868758       -2.13392193266004       -0.07277255281380
C           -1.18858161349625       -0.72779425532633       -0.30303668085280
C           -0.59177975869321       -0.61852674171380       -1.75106830013137
C           -2.16238970079213        0.37062275660027       -0.02946504371438
C           -3.28180368639580        0.72445295384009       -0.73718159395831
C           -4.12207542011793        1.69984165795842       -0.21748349245594
C           -3.84040238096774        2.29691291686046        0.99707704901740
C           -2.71730508832019        1.95626448383976        1.72317234800462
C           -1.86318936080945        0.98938876497809        1.19832757182426
N           -0.78136594768940        0.40248031423248        1.75714512665241
C           -0.57423798966777       -0.77062922943460        1.11987809182670
C            0.69415797408795       -1.47606919379418        1.47399405884795
C            2.01789134923938       -1.61443725390223        1.19112988541626
C            2.73596820302708       -0.73910261000651        0.32031382049944
C            4.10294790586905       -1.04891634770923       -0.06966419061936
C            4.80340885018293       -0.23056105765777       -0.88109193732121
C            4.27180223995916        0.94742317829823       -1.39767508501642
C            3.02272916788339        1.21519928189099       -1.16741068621752
C            2.20646804481531        0.53447064456473       -0.23879442149929
O            1.45000664048228        1.64394013655087        0.00725523473212
H           -2.08891363815647       -2.15749973159998        0.98218581958618
H           -0.96894618466491       -2.85114282117596       -0.19673129857739
H           -2.57683837366634       -2.27794424798547       -0.70769368135802
H            0.23656540343743       -1.28721765417929       -1.92148178658762
H           -1.40371279792369       -0.92817341966138       -2.43658214851723
H           -0.31509478215569        0.38557984616001       -2.05208824126634
H           -3.51210250043956        0.24145030007298       -1.68073662357693
H           -5.00970367830457        1.98392634062280       -0.76755871086714
H           -4.51185292303427        3.04540667323778        1.39961666449757
H           -2.49751070695927        2.39585081853631        2.68476924097207
H           -0.11300643436009        1.15962704797407        2.15081643809172
H            0.22744064974316       -2.05599917375574        2.21087993019902
H            2.53538845401248       -2.43308398988383        1.72140010238054
H            4.56785447043866       -1.95107696460159        0.32357522521042
H            5.80955762565320       -0.44639633449668       -1.17622809475919
H            4.74930784557585        1.62209591021288       -2.03120365530393
H            2.46272562089501        2.13355892311342       -1.42558838234455
37
 energy: -53.963394710975 gnorm: 0.209610383208 xtb: 6.5.1 (579679a)
C           -1.78975701184117       -2.15164677544026       -0.07853115854720
C           -1.21427817148301       -0.74363412821799       -0.30254652798555
C           -0.58926677097813       -0.62095989111962       -1.74359286991248
C           -2.16715029003685        0.37086167631451       -0.03122228691334