      -----------------------------------------------------------      
     |                   =====================                   |     
     |                           x T B                           |     
     |                   =====================                   |     
     |                         S. Grimme                         |     
     |          Mulliken Center for Theoretical Chemistry        |     
     |                    University of Bonn                     |     
      -----------------------------------------------------------      

   * xtb version 6.5.1 (579679a) compiled by 'ehlert@majestix' on 2022-07-11

   xtb is free software: you can redistribute it and/or modify it under
   the terms of the GNU Lesser General Public License as published by
   the Free Software Foundation, either version 3 of the License, or
   (at your option) any later version.
   
   xtb is distributed in the hope that it will be useful,
   but WITHOUT ANY WARRANTY; without even the implied warranty of
   MERCHANTABILITY or FITNESS FOR A PARTICULAR PURPOSE.  See the
   GNU Lesser General Public License for more details.
   
   Cite this work as:
   * C. Bannwarth, E. Caldeweyher, S. Ehlert, A. Hansen, P. Pracht,
     J. Seibert, S. Spicher, S. Grimme, WIREs Comput. Mol. Sci., 2020, 11,
     e01493. DOI: 10.1002/wcms.1493
   
   for GFN2-xTB:
   * C. Bannwarth, S. Ehlert and S. Grimme., J. Chem. Theory Comput., 2019,
     15, 1652-1671. DOI: 10.1021/acs.jctc.8b01176
   for GFN1-xTB:
   * S. Grimme, C. Bannwarth, P. Shushkov, J. Chem. Theory Comput., 2017,
     13, 1989-2009. DOI: 10.1021/acs.jctc.7b00118
   for GFN0-xTB:
   * P. Pracht, E. Caldeweyher, S. Ehlert, S. Grimme, ChemRxiv, 2019, preprint.
     DOI: 10.26434/chemrxiv.8326202.v1
   for GFN-FF:
   * S. Spicher and S. Grimme, Angew. Chem. Int. Ed., 2020, 59, 15665-15673.
     DOI: 10.1002/anie.202004239
   
   for ALPB and GBSA implicit solvation:
   * S. Ehlert, M. Stahn, S. Spicher, S. Grimme, J. Chem. Theory Comput.,
     2021, 17, 4250-4261. DOI: 10.1021/acs.jctc.1c00471
   
   for DFT-D4:
   * E. Caldeweyher, C. Bannwarth and S. Grimme, J. Chem. Phys., 2017,
     147, 034112. DOI: 10.1063/1.4993215
   * E. Caldeweyher, S. Ehlert, A. Hansen, H. Neugebauer, S. Spicher,
     C. Bannwarth and S. Grimme, J. Chem. Phys., 2019, 150, 154122.
     DOI: 10.1063/1.5090222
   * E. Caldeweyher, J.-M. Mewes, S. Ehlert and S. Grimme, Phys. Chem. Chem. Phys.
     2020, 22, 8499-8512. DOI: 10.1039/D0CP00502A
   
   for sTDA-xTB:
   * S. Grimme and C. Bannwarth, J. Chem. Phys., 2016, 145, 054103.
     DOI: 10.1063/1.4959605
   
   in the mass-spec context:
   * V. Asgeirsson, C. Bauer and S. Grimme, Chem. Sci., 2017, 8, 4879.
     DOI: 10.1039/c7sc00601b
   * J. Koopman and S. Grimme, ACS Omega 2019, 4, 12, 15120-15133.
     DOI: 10.1021/acsomega.9b02011
   
   for metadynamics refer to:
   * S. Grimme, J. Chem. Theory Comput., 2019, 155, 2847-2862
     DOI: 10.1021/acs.jctc.9b00143
   
   for SPH calculations refer to:
   * S. Spicher and S. Grimme, J. Chem. Theory Comput., 2021, 17, 1701-1714
     DOI: 10.1021/acs.jctc.0c01306
   
   with help from (in alphabetical order)
   P. Atkinson, C. Bannwarth, F. Bohle, G. Brandenburg, E. Caldeweyher
   M. Checinski, S. Dohm, S. Ehlert, S. Ehrlich, I. Gerasimov, C. Hölzer
   A. Katbashev, J. Koopman, C. Lavigne, S. Lehtola, F. März, M. Müller,
   F. Musil, H. Neugebauer, J. Pisarek, C. Plett, P. Pracht, F. Pultar,
   J. Seibert, P. Shushkov, S. Spicher, M. Stahn, M. Steiner, T. Strunk,
   J. Stückrath, T. Rose, and J. Unsleber
   
 * started run on 2026/05/06 at 06:43:10.602     

           -------------------------------------------------
          |                Calculation Setup                |
           -------------------------------------------------

          program call               : /storage/brno2/home/krupickm/bin/xtb --namespace input input.xyz --opt --gfn 2 --input xtb.inp
          calculation namespace      : input
          coordinate file            : input.xyz
          omp threads                :                     1

   ID    Z sym.   atoms
    1    6 C      1-9, 11-19
    2    7 N      10
    3    8 O      20
    4    1 H      21-37
constraining bond 11 20 to    3.4000000 Å, actual value:    1.4458309 Å

           -------------------------------------------------
          |                 G F N 2 - x T B                 |
           -------------------------------------------------

        Reference                      10.1021/acs.jctc.8b01176
      * Hamiltonian:
        H0-scaling (s, p, d)           1.850000    2.230000    2.230000
        zeta-weighting                 0.500000
      * Dispersion:
        s8                             2.700000
        a1                             0.520000
        a2                             5.000000
        s9                             5.000000
      * Repulsion:
        kExp                           1.500000    1.000000
        rExp                           1.000000
      * Coulomb:
        alpha                          2.000000
        third order                    shell-resolved
        anisotropic                    true
        a3                             3.000000
        a5                             4.000000
        cn-shift                       1.200000
        cn-exp                         4.000000
        max-rad                        5.000000

q/qsh data taken from xtbrestart
CAMM data taken from xtbrestart

          ...................................................
          :                      SETUP                      :
          :.................................................:
          :  # basis functions                  97          :
          :  # atomic orbitals                  97          :
          :  # shells                           57          :
          :  # electrons                       100          :
          :  max. iterations                   250          :
          :  Hamiltonian                  GFN2-xTB          :
          :  restarted?                       true          :
          :  GBSA solvation                  false          :
          :  PC potential                    false          :
          :  electronic temp.          300.0000000     K    :
          :  accuracy                    1.0000000          :
          :  -> integral cutoff          0.2500000E+02      :
          :  -> integral neglect         0.1000000E-07      :
          :  -> SCF convergence          0.1000000E-05 Eh   :
          :  -> wf. convergence          0.1000000E-03 e    :
          :  Broyden damping             0.4000000          :
          ...................................................

 iter      E             dE          RMSdq      gap      omega  full diag
   1    -55.0023671 -0.550024E+02  0.328E+00    2.77       0.0  T
   2    -55.0374497 -0.350826E-01  0.198E+00    3.12       1.0  T
   3    -55.0155376  0.219121E-01  0.135E+00    2.92       1.0  T
   4    -55.0531605 -0.376229E-01  0.305E-01    2.87       1.0  T
   5    -55.0559683 -0.280781E-02  0.670E-02    2.88       1.0  T
   6    -55.0560636 -0.952963E-04  0.248E-02    2.90       1.0  T
   7    -55.0560643 -0.688990E-06  0.136E-02    2.90       1.2  T
   8    -55.0560666 -0.226148E-05  0.492E-03    2.90       3.3  T
   9    -55.0560670 -0.379094E-06  0.169E-03    2.90       9.8  T
  10    -55.0560670 -0.350605E-07  0.869E-04    2.90      18.9  T
  11    -55.0560670 -0.331358E-08  0.343E-04    2.90      48.0  T

   *** convergence criteria satisfied after 11 iterations ***

         #    Occupation            Energy/Eh            Energy/eV
      -------------------------------------------------------------
         1        2.0000           -0.7144829             -19.4421
       ...           ...                  ...                  ...
        44        2.0000           -0.4225534             -11.4983
        45        2.0000           -0.4158264             -11.3152
        46        2.0000           -0.4107614             -11.1774
        47        2.0000           -0.3958928             -10.7728
        48        2.0000           -0.3918230             -10.6620
        49        2.0000           -0.3712473             -10.1022
        50        2.0000           -0.3624193              -9.8619 (HOMO)
        51                         -0.2557847              -6.9603 (LUMO)
        52                         -0.2212276              -6.0199
        53                         -0.2172136              -5.9107
        54                         -0.2083878              -5.6705
        55                         -0.1821040              -4.9553
       ...                                ...                  ...
        97                          0.6613512              17.9963
      -------------------------------------------------------------
                  HL-Gap            0.1066346 Eh            2.9017 eV
             Fermi-level           -0.3091020 Eh           -8.4111 eV

 SCC (total)                   0 d,  0 h,  0 min,  0.064 sec
 SCC setup                      ...        0 min,  0.001 sec (  0.998%)
 Dispersion                     ...        0 min,  0.001 sec (  1.483%)
 classical contributions        ...        0 min,  0.000 sec (  0.205%)
 integral evaluation            ...        0 min,  0.011 sec ( 16.605%)
 iterations                     ...        0 min,  0.028 sec ( 43.261%)
 molecular gradient             ...        0 min,  0.024 sec ( 36.869%)
 printout                       ...        0 min,  0.000 sec (  0.479%)

         :::::::::::::::::::::::::::::::::::::::::::::::::::::
         ::                     SUMMARY                     ::
         :::::::::::::::::::::::::::::::::::::::::::::::::::::
         :: total energy             -40.566348832941 Eh    ::
         :: gradient norm             10.439749284834 Eh/a0 ::
         :: HOMO-LUMO gap              2.901674723858 eV    ::
         ::.................................................::
         :: SCC energy               -55.056066998001 Eh    ::
         :: -> isotropic ES            0.027194825938 Eh    ::
         :: -> anisotropic ES          0.007543191845 Eh    ::
         :: -> anisotropic XC          0.029688349897 Eh    ::
         :: -> dispersion             -0.043173199671 Eh    ::
         :: repulsion energy           0.852128209311 Eh    ::
         :: add. restraining          13.637097085281 Eh    ::
         :: total charge               0.000000000000 e     ::
         :::::::::::::::::::::::::::::::::::::::::::::::::::::

      ----------------------------------------------------------- 
     |                   =====================                   |
     |                        A N C O P T                        |
     |                   =====================                   |
     |               Approximate Normal Coordinate               |
     |                Rational Function Optimizer                |
      ----------------------------------------------------------- 

          ...................................................
          :                      SETUP                      :
          :.................................................:
          :   optimization level            normal          :
          :   max. optcycles                   200          :
          :   ANC micro-cycles                  20          :
          :   degrees of freedom               105          :
          :.................................................:
          :   RF solver                   davidson          :
          :   write xtbopt.log                true          :
          :   linear?                        false          :
          :   energy convergence         0.5000000E-05 Eh   :
          :   grad. convergence          0.1000000E-02 Eh/α :
          :   maximium RF displ.         1.0000000          :
          :   Hlow (freq-cutoff)         0.1000000E-01      :
          :   Hmax (freq-cutoff)         5.0000000          :
          :   S6 in model hess.         20.0000000          :
          ...................................................

generating ANC from model Hessian ...
Using Lindh-Hessian (1995)
 Shifting diagonal of input Hessian by    4.94815630349077     
 Lowest  eigenvalues of input Hessian
    0.010000    0.338579    0.000000    0.000000    0.000000    0.000000
    0.000000    0.000000    4.949119    4.949733    4.950300    4.950863
    4.952411    4.954447    4.955302    4.956903    4.957134    4.958139
 Highest eigenvalues
    6.830649    6.911572    6.937891    6.968032    6.975634   10.279982
 

........................................................................
.............................. CYCLE    1 ..............................
........................................................................
   1    -55.0560670 -0.550561E+02  0.123E-04    2.90       0.0  T
   2    -55.0560670 -0.167731E-09  0.782E-05    2.90     210.1  T
   3    -55.0560670 -0.116998E-09  0.469E-05    2.90     350.6  T
     SCC iter.                  ...        0 min,  0.009 sec
     gradient                   ...        0 min,  0.024 sec
 * total energy  :   -40.5663488 Eh     change       -0.1467498E-08 Eh
   gradient norm :    10.4397459 Eh/α   predicted     0.0000000E+00 (-100.00%)
   displ. norm   :     0.7888219 α      lambda       -0.8235032E+01
   maximum displ.:     0.7863765 α      in ANC's #27, #95, #89, ...

........................................................................
.............................. CYCLE    2 ..............................
........................................................................
   1    -54.9935203 -0.549935E+02  0.107E+00    2.24       0.0  T
   2    -55.0111817 -0.176614E-01  0.581E-01    1.96       1.0  T
   3    -55.0128014 -0.161969E-02  0.350E-01    2.07       1.0  T
   4    -55.0113596  0.144183E-02  0.246E-01    1.90       1.0  T
   5    -55.0140013 -0.264170E-02  0.437E-02    2.01       1.0  T
   6    -55.0140359 -0.346728E-04  0.258E-02    2.00       1.0  T
   7    -55.0140471 -0.111411E-04  0.130E-02    2.00       1.3  T
   8    -55.0140487 -0.160493E-05  0.608E-03    2.00       2.7  T
   9    -55.0140492 -0.564752E-06  0.233E-03    2.00       7.1  T
  10    -55.0140493 -0.647183E-07  0.884E-04    2.00      18.6  T
  11    -55.0140493 -0.611069E-08  0.364E-04    2.00      45.2  T
     SCC iter.                  ...        0 min,  0.025 sec
     gradient                   ...        0 min,  0.024 sec
 * total energy  :   -47.4850568 Eh     change       -0.6918708E+01 Eh
   gradient norm :     7.1483914 Eh/α   predicted    -0.6679606E+01 (  -3.46%)
   displ. norm   :     0.7501995 α      lambda       -0.5361477E+01
   maximum displ.:     0.7463908 α      in ANC's #27, #95, #89, ...

........................................................................
.............................. CYCLE    3 ..............................
........................................................................
   1    -54.9047496 -0.549047E+02  0.764E-01    0.47       0.0  T
   2    -54.7155358  0.189214E+00  0.178E+00    0.35       1.0  T
   3    -54.8736103 -0.158075E+00  0.893E-01    0.90       1.0  T
   4    -54.8985691 -0.249587E-01  0.574E-01    0.65       1.0  T
   5    -54.9100273 -0.114582E-01  0.258E-01    0.50       1.0  T
   6    -54.9132952 -0.326796E-02  0.110E-01    0.45       1.0  T
   7    -54.9136300 -0.334808E-03  0.695E-02    0.44       1.0  T
   8    -54.9138084 -0.178342E-03  0.147E-02    0.42       1.1  T
   9    -54.9138170 -0.859767E-05  0.300E-03    0.42       5.5  T
  10    -54.9138161  0.844014E-06  0.420E-03    0.42       3.9  T
  11    -54.9138172 -0.103146E-05  0.642E-04    0.42      25.6  T
  12    -54.9138171  0.627505E-08  0.508E-04    0.42      32.4  T
  13    -54.9138172 -0.112220E-07  0.264E-04    0.42      62.2  T
     SCC iter.                  ...        0 min,  0.029 sec
     gradient                   ...        0 min,  0.024 sec
 * total energy  :   -51.7057968 Eh     change       -0.4220740E+01 Eh
   gradient norm :     4.1059302 Eh/α   predicted    -0.4190016E+01 (  -0.73%)
   displ. norm   :     0.6243665 α      lambda       -0.2557000E+01
   maximum displ.:     0.6160078 α      in ANC's #27, #2, #95, ...

........................................................................
.............................. CYCLE    4 ..............................
........................................................................
   1    -54.2832886 -0.542833E+02  0.277E+00    1.04       0.0  T
   2    -53.9072198  0.376069E+00  0.369E+00    1.14       1.0  T
   3    -54.6292527 -0.722033E+00  0.174E+00    2.07       1.0  T
   4    -54.6838262 -0.545734E-01  0.129E+00    0.93       1.0  T
   5    -54.6740646  0.976154E-02  0.132E+00    0.14       1.0  T
   6    -54.7431130 -0.690484E-01  0.867E-01    0.27       1.0  T
   7    -54.7947420 -0.516289E-01  0.147E-01    0.13       1.0  T
   8    -54.7724087  0.223333E-01  0.563E-01    0.19       1.0  T
   9    -54.7656524  0.675623E-02  0.643E-01    0.12       1.0  T
  10    -54.7944643 -0.288119E-01  0.128E-01    0.15       1.0  T
  11    -54.7953183 -0.853934E-03  0.677E-02    0.14       1.0  T
  12    -54.7952443  0.739624E-04  0.748E-02    0.14       1.0  T
  13    -54.7956394 -0.395033E-03  0.120E-02    0.14       1.4  T
  14    -54.7956456 -0.621679E-05  0.765E-03    0.14       2.1  T
  15    -54.7956498 -0.425323E-05  0.765E-04    0.14      21.5  T
  16    -54.7956499 -0.312418E-07  0.356E-04    0.14      46.2  T
  17    -54.7956498  0.168054E-07  0.593E-04    0.14      27.7  T
     SCC iter.                  ...        0 min,  0.037 sec
     gradient                   ...        0 min,  0.024 sec
 * total energy  :   -53.4937889 Eh     change       -0.1787992E+01 Eh
   gradient norm :     1.6259846 Eh/α   predicted    -0.1778640E+01 (  -0.52%)
   displ. norm   :     0.3779169 α      lambda       -0.5937577E+00
   maximum displ.:     0.3489116 α      in ANC's #27, #2, #1, ...

........................................................................
.............................. CYCLE    5 ..............................
........................................................................
   1    -54.3998880 -0.543999E+02  0.214E+00    0.45       0.0  T
   2    -53.9238309  0.476057E+00  0.334E+00    1.00       1.0  T
   3    -54.5392299 -0.615399E+00  0.169E+00    1.69       1.0  T
   4    -54.5958598 -0.566299E-01  0.130E+00    0.69       1.0  T
   5    -54.5642286  0.316312E-01  0.147E+00    0.24       1.0  T
   6    -54.6911237 -0.126895E+00  0.666E-01    0.26       1.0  T
   7    -54.7243143 -0.331907E-01  0.141E-01    0.21       1.0  T
   8    -54.6996413  0.246730E-01  0.571E-01    0.24       1.0  T
   9    -54.7218277 -0.221864E-01  0.219E-01    0.19       1.0  T
  10    -54.7246433 -0.281552E-02  0.107E-01    0.20       1.0  T
  11    -54.7255397 -0.896413E-03  0.102E-02    0.20       1.6  T
  12    -54.7255326  0.710431E-05  0.137E-02    0.20       1.2  T
  13    -54.7255467 -0.141179E-04  0.219E-03    0.20       7.5  T
  14    -54.7255471 -0.361794E-06  0.276E-04    0.20      59.6  T
  15    -54.7255471 -0.232497E-08  0.174E-04    0.20      94.6  T
     SCC iter.                  ...        0 min,  0.033 sec
     gradient                   ...        0 min,  0.023 sec
 * total energy  :   -53.8276324 Eh     change       -0.3338435E+00 Eh
   gradient norm :     0.2634504 Eh/α   predicted    -0.3392796E+00 (   1.63%)
   displ. norm   :     0.5575269 α      lambda       -0.3147647E-01
   maximum displ.:     0.5509508 α      in ANC's #1, #2, #27, ...

........................................................................
.............................. CYCLE    6 ..............................
........................................................................
   1    -54.6005532 -0.546006E+02  0.128E+00    0.78       0.0  T
   2    -53.8784211  0.722132E+00  0.348E+00    1.34       1.0  T
   3    -54.5199371 -0.641516E+00  0.166E+00    0.30       1.0  T
   4    -54.6768288 -0.156892E+00  0.750E-01    0.39       1.0  T
   5    -54.7159346 -0.391058E-01  0.236E-01    0.25       1.0  T
   6    -54.7144873  0.144730E-02  0.228E-01    0.25       1.0  T
   7    -54.7156048 -0.111752E-02  0.161E-01    0.25       1.0  T
   8    -54.7158873 -0.282449E-03  0.159E-01    0.27       1.0  T
   9    -54.7172663 -0.137907E-02  0.803E-02    0.26       1.0  T
  10    -54.7177188 -0.452480E-03  0.213E-02    0.26       1.0  T
  11    -54.7177510 -0.321510E-04  0.447E-03    0.26       3.7  T
  12    -54.7177445  0.648378E-05  0.104E-02    0.26       1.6  T
  13    -54.7177525 -0.797005E-05  0.383E-04    0.26      42.9  T
  14    -54.7177525  0.339195E-08  0.299E-04    0.26      54.9  T
  15    -54.7177524  0.117872E-07  0.497E-04    0.26      33.1  T
     SCC iter.                  ...        0 min,  0.033 sec
     gradient                   ...        0 min,  0.023 sec
 * total energy  :   -53.8349425 Eh     change       -0.7310106E-02 Eh
   gradient norm :     0.3028832 Eh/α   predicted    -0.2064548E-01 ( 182.42%)
   displ. norm   :     0.5082197 α      lambda       -0.4300406E-01
   maximum displ.:     0.4845354 α      in ANC's #1, #2, #27, ...

........................................................................
.............................. CYCLE    7 ..............................
........................................................................
   1    -54.6920105 -0.546920E+02  0.841E-01    0.21       0.0  T
   2    -54.4740814  0.217929E+00  0.193E+00    1.92       1.0  T
   3    -54.6553204 -0.181239E+00  0.108E+00    0.49       1.0  T
   4    -54.7302543 -0.749338E-01  0.300E-01    0.21       1.0  T
   5    -54.7275100  0.274430E-02  0.288E-01    0.24       1.0  T
   6    -54.6162401  0.111270E+00  0.123E+00    0.22       1.0  T
   7    -54.7321945 -0.115954E+00  0.123E-01    0.23       1.0  T
   8    -54.7311261  0.106840E-02  0.166E-01    0.23       1.0  T
   9    -54.7323801 -0.125402E-02  0.104E-01    0.23       1.0  T
  10    -54.7331299 -0.749813E-03  0.335E-02    0.22       1.0  T
  11    -54.7330713  0.586303E-04  0.429E-02    0.22       1.0  T
  12    -54.7331973 -0.126032E-03  0.143E-02    0.22       1.2  T
  13    -54.7332068 -0.945911E-05  0.877E-03    0.22       1.9  T
  14    -54.7332115 -0.475122E-05  0.384E-03    0.22       4.3  T
  15    -54.7332125 -0.102354E-05  0.116E-03    0.22      14.1  T
  16    -54.7332126 -0.959640E-07  0.286E-04    0.22      57.4  T
  17    -54.7332126 -0.583500E-08  0.728E-05    0.22     225.8  T
     SCC iter.                  ...        0 min,  0.037 sec
     gradient                   ...        0 min,  0.023 sec
 * total energy  :   -53.8509313 Eh     change       -0.1598872E-01 Eh
   gradient norm :     0.3273109 Eh/α   predicted    -0.2706042E-01 (  69.25%)
   displ. norm   :     0.1093631 α      lambda       -0.2741156E-01
   maximum displ.:     0.0783740 α      in ANC's #2, #27, #45, ...

........................................................................
.............................. CYCLE    8 ..............................
........................................................................
   1    -54.7568398 -0.547568E+02  0.214E-01    0.24       0.0  T
   2    -54.4913556  0.265484E+00  0.186E+00    0.30       1.0  T
   3    -54.7406367 -0.249281E+00  0.501E-01    0.27       1.0  T
   4    -54.7534580 -0.128213E-01  0.274E-01    0.25       1.0  T
   5    -54.7575052 -0.404716E-02  0.127E-01    0.24       1.0  T
   6    -54.7586966 -0.119148E-02  0.138E-02    0.23       1.2  T
   7    -54.7586902  0.643692E-05  0.126E-02    0.23       1.3  T
   8    -54.7586888  0.141782E-05  0.116E-02    0.23       1.4  T
   9    -54.7586990 -0.102325E-04  0.201E-03    0.23       8.2  T
  10    -54.7586992 -0.222871E-06  0.743E-04    0.23      22.1  T
  11    -54.7586992  0.517162E-07  0.992E-04    0.23      16.6  T
     SCC iter.                  ...        0 min,  0.024 sec
     gradient                   ...        0 min,  0.023 sec
 * total energy  :   -53.8710956 Eh     change       -0.2016435E-01 Eh
   gradient norm :     0.1800495 Eh/α   predicted    -0.1387067E-01 ( -31.21%)
   displ. norm   :     0.2607789 α      lambda       -0.4497598E-01
   maximum displ.:     0.0949411 α      in ANC's #45, #32, #38, ...

........................................................................
.............................. CYCLE    9 ..............................
........................................................................
   1    -54.7563927 -0.547564E+02  0.941E-01    0.59       0.0  T
   2    -54.0839702  0.672422E+00  0.326E+00    1.11       1.0  T
   3    -54.8045486 -0.720578E+00  0.419E-01    0.25       1.0  T
   4    -54.8055430 -0.994374E-03  0.357E-01    0.30       1.0  T
   5    -54.8010899  0.445313E-02  0.425E-01    0.24       1.0  T
   6    -54.8128510 -0.117611E-01  0.106E-01    0.27       1.0  T
   7    -54.8128339  0.171409E-04  0.102E-01    0.25       1.0  T
   8    -54.8135738 -0.739913E-03  0.641E-03    0.26       2.6  T
   9    -54.8135729  0.864737E-06  0.666E-03    0.26       2.5  T
  10    -54.8135748 -0.181903E-05  0.261E-03    0.26       6.3  T
  11    -54.8135750 -0.232790E-06  0.189E-03    0.26       8.7  T
  12    -54.8135752 -0.241494E-06  0.437E-04    0.26      37.6  T
  13    -54.8135752 -0.768085E-08  0.304E-04    0.26      54.0  T
     SCC iter.                  ...        0 min,  0.029 sec
     gradient                   ...        0 min,  0.023 sec
 * total energy  :   -53.9069458 Eh     change       -0.3585016E-01 Eh
   gradient norm :     0.1870452 Eh/α   predicted    -0.2402243E-01 ( -32.99%)
   displ. norm   :     0.4698958 α      lambda       -0.5626338E-01
   maximum displ.:     0.2104546 α      in ANC's #1, #45, #38, ...

........................................................................
.............................. CYCLE   10 ..............................
........................................................................
   1    -54.8234003 -0.548234E+02  0.931E-01    0.86       0.0  T
   2    -54.1809010  0.642499E+00  0.324E+00    0.69       1.0  T
   3    -54.8523716 -0.671471E+00  0.586E-01    0.48       1.0  T
   4    -54.8677134 -0.153419E-01  0.257E-01    0.37       1.0  T
   5    -54.8690072 -0.129380E-02  0.161E-01    0.33       1.0  T
   6    -54.8693562 -0.348956E-03  0.801E-02    0.34       1.0  T
   7    -54.8685772  0.778992E-03  0.125E-01    0.36       1.0  T
   8    -54.8696191 -0.104190E-02  0.106E-02    0.34       1.6  T
   9    -54.8696226 -0.353676E-05  0.365E-03    0.34       4.5  T
  10    -54.8696224  0.290562E-06  0.289E-03    0.34       5.7  T
  11    -54.8696224 -0.685856E-07  0.232E-03    0.34       7.1  T
  12    -54.8696227 -0.316058E-06  0.687E-04    0.34      23.9  T
  13    -54.8696228 -0.203991E-07  0.393E-04    0.34      41.9  T
     SCC iter.                  ...        0 min,  0.028 sec
     gradient                   ...        0 min,  0.023 sec
 * total energy  :   -53.9460708 Eh     change       -0.3912506E-01 Eh
   gradient norm :     0.2353184 Eh/α   predicted    -0.3434424E-01 ( -12.22%)
   displ. norm   :     0.3930318 α      lambda       -0.2754746E-01
   maximum displ.:     0.2980661 α      in ANC's #1, #45, #38, ...

........................................................................
.............................. CYCLE   11 ..............................
........................................................................
   1    -54.8610437 -0.548610E+02  0.563E-01    0.57       0.0  T
   2    -54.3725565  0.488487E+00  0.284E+00    0.58       1.0  T
   3    -54.8744909 -0.501934E+00  0.277E-01    0.45       1.0  T
   4    -54.8766680 -0.217710E-02  0.135E-01    0.40       1.0  T
   5    -54.8762352  0.432867E-03  0.121E-01    0.38       1.0  T
   6    -54.8766117 -0.376576E-03  0.751E-02    0.39       1.0  T
   7    -54.8769327 -0.320926E-03  0.216E-02    0.40       1.0  T
   8    -54.8769555 -0.228456E-04  0.490E-03    0.40       3.4  T
   9    -54.8769546  0.947803E-06  0.503E-03    0.40       3.3  T
  10    -54.8769559 -0.135072E-05  0.122E-03    0.40      13.5  T
  11    -54.8769559 -0.132886E-07  0.637E-04    0.40      25.8  T
  12    -54.8769559 -0.215271E-07  0.175E-04    0.40      94.1  T
     SCC iter.                  ...        0 min,  0.026 sec
     gradient                   ...        0 min,  0.023 sec
 * total energy  :   -53.9633947 Eh     change       -0.1732389E-01 Eh
   gradient norm :     0.2095854 Eh/α   predicted    -0.1590223E-01 (  -8.21%)
   displ. norm   :     0.1642062 α      lambda       -0.1441389E-01
   maximum displ.:     0.0572589 α      in ANC's #45, #54, #74, ...

........................................................................
.............................. CYCLE   12 ..............................
........................................................................
   1    -54.8838737 -0.548839E+02  0.214E-01    0.45       0.0  T
   2    -54.7872948  0.965790E-01  0.125E+00    0.33       1.0  T
   3    -54.8842432 -0.969484E-01  0.163E-01    0.45       1.0  T
   4    -54.8854020 -0.115877E-02  0.699E-02    0.42       1.0  T
   5    -54.8854619 -0.598863E-04  0.329E-02    0.42       1.0  T
   6    -54.8855277 -0.657843E-04  0.668E-03    0.41       2.5  T
   7    -54.8855285 -0.792361E-06  0.316E-03    0.41       5.2  T
   8    -54.8855284  0.322958E-07  0.171E-03    0.41       9.6  T
   9    -54.8855286 -0.170665E-06  0.470E-04    0.41      35.0  T
  10    -54.8855286 -0.422501E-08  0.251E-04    0.41      65.5  T
     SCC iter.                  ...        0 min,  0.022 sec
     gradient                   ...        0 min,  0.023 sec
 * total energy  :   -53.9756967 Eh     change       -0.1230195E-01 Eh
   gradient norm :     0.1994713 Eh/α   predicted    -0.7401545E-02 ( -39.83%)
   displ. norm   :     0.3416633 α      lambda       -0.4392930E-01
   maximum displ.:     0.0926848 α      in ANC's #45, #54, #74, ...

........................................................................
.............................. CYCLE   13 ..............................
........................................................................
   1    -54.8992884 -0.548993E+02  0.328E-01    0.43       0.0  T
   2    -54.8944453  0.484315E-02  0.393E-01    0.55       1.0  T
   3    -54.8865871  0.785811E-02  0.491E-01    0.38       1.0  T
   4    -54.8988787 -0.122915E-01  0.227E-01    0.50       1.0  T
   5    -54.9008595 -0.198086E-02  0.845E-02    0.47       1.0  T
   6    -54.9012536 -0.394087E-03  0.249E-02    0.45       1.0  T
   7    -54.9012817 -0.280525E-04  0.106E-02    0.45       1.6  T
   8    -54.9012854 -0.369726E-05  0.327E-03    0.45       5.0  T
   9    -54.9012857 -0.288521E-06  0.133E-03    0.45      12.4  T
  10    -54.9012858 -0.100461E-06  0.387E-04    0.45      42.5  T
  11    -54.9012858 -0.273252E-08  0.145E-04    0.45     113.4  T
     SCC iter.                  ...        0 min,  0.024 sec
     gradient                   ...        0 min,  0.023 sec
 * total energy  :   -54.0064116 Eh     change       -0.3071496E-01 Eh
   gradient norm :     0.1581982 Eh/α   predicted    -0.2452913E-01 ( -20.14%)
   displ. norm   :     0.2170524 α      lambda       -0.1833396E-01
   maximum displ.:     0.0529672 α      in ANC's #54, #74, #47, ...

........................................................................
.............................. CYCLE   14 ..............................
........................................................................
   1    -54.9034642 -0.549035E+02  0.373E-01    0.42       0.0  T
   2    -54.8721898  0.312744E-01  0.809E-01    0.92       1.0  T
   3    -54.9096923 -0.375025E-01  0.184E-01    0.50       1.0  T
   4    -54.9100776 -0.385313E-03  0.113E-01    0.49       1.0  T
   5    -54.9086879  0.138972E-02  0.167E-01    0.44       1.0  T
   6    -54.9104912 -0.180331E-02  0.174E-02    0.47       1.0  T
   7    -54.9105031 -0.118482E-04  0.663E-03    0.47       2.5  T
   8    -54.9105038 -0.735615E-06  0.407E-03    0.47       4.0  T
   9    -54.9105044 -0.571475E-06  0.204E-03    0.47       8.0  T
  10    -54.9105046 -0.180596E-06  0.668E-04    0.47      24.6  T
  11    -54.9105046 -0.933993E-08  0.282E-04    0.47      58.2  T
     SCC iter.                  ...        0 min,  0.024 sec
     gradient                   ...        0 min,  0.023 sec
 * total energy  :   -54.0184822 Eh     change       -0.1207060E-01 Eh
   gradient norm :     0.1493002 Eh/α   predicted    -0.9598976E-02 ( -20.48%)
   displ. norm   :     0.1594694 α      lambda       -0.8566753E-02
   maximum displ.:     0.0867165 α      in ANC's #1, #54, #74, ...

........................................................................
.............................. CYCLE   15 ..............................
........................................................................
   1    -54.9116160 -0.549116E+02  0.230E-01    0.45       0.0  T
   2    -54.8945497  0.170663E-01  0.563E-01    0.72       1.0  T
   3    -54.9137145 -0.191648E-01  0.869E-02    0.49       1.0  T
   4    -54.9137304 -0.159229E-04  0.557E-02    0.50       1.0  T
   5    -54.9136096  0.120759E-03  0.549E-02    0.48       1.0  T
   6    -54.9137982 -0.188582E-03  0.693E-03    0.49       2.4  T
   7    -54.9138007 -0.254052E-05  0.222E-03    0.49       7.4  T
   8    -54.9138007 -0.642702E-08  0.167E-03    0.49       9.8  T
   9    -54.9138009 -0.125567E-06  0.405E-04    0.49      40.6  T
  10    -54.9138009 -0.685739E-08  0.156E-04    0.49     105.2  T
     SCC iter.                  ...        0 min,  0.023 sec
     gradient                   ...        0 min,  0.023 sec
 * total energy  :   -54.0252839 Eh     change       -0.6801670E-02 Eh
   gradient norm :     0.1482628 Eh/α   predicted    -0.4393125E-02 ( -35.41%)
   displ. norm   :     0.2397684 α      lambda       -0.1563204E-01
   maximum displ.:     0.1172085 α      in ANC's #1, #47, #39, ...

........................................................................
.............................. CYCLE   16 ..............................
........................................................................
   1    -54.9171020 -0.549171E+02  0.337E-01    0.47       0.0  T
   2    -54.8904269  0.266751E-01  0.728E-01    0.87       1.0  T
   3    -54.9217720 -0.313451E-01  0.128E-01    0.52       1.0  T
   4    -54.9218114 -0.394404E-04  0.789E-02    0.53       1.0  T
   5    -54.9213796  0.431785E-03  0.922E-02    0.50       1.0  T
   6    -54.9219078 -0.528180E-03  0.987E-03    0.52       1.7  T
   7    -54.9219117 -0.387641E-05  0.415E-03    0.52       4.0  T
   8    -54.9219124 -0.706256E-06  0.146E-03    0.52      11.2  T
   9    -54.9219124  0.864208E-08  0.877E-04    0.52      18.8  T
  10    -54.9219124 -0.259034E-07  0.369E-04    0.52      44.5  T
     SCC iter.                  ...        0 min,  0.023 sec
     gradient                   ...        0 min,  0.024 sec
 * total energy  :   -54.0366567 Eh     change       -0.1137285E-01 Eh
   gradient norm :     0.1380554 Eh/α   predicted    -0.8265415E-02 ( -27.32%)
   displ. norm   :     0.2807180 α      lambda       -0.1486467E-01
   maximum displ.:     0.1967072 α      in ANC's #1, #39, #17, ...

........................................................................
.............................. CYCLE   17 ..............................
........................................................................
   1    -54.9180673 -0.549181E+02  0.267E-01    0.54       0.0  T
   2    -54.9099594  0.810790E-02  0.407E-01    0.69       1.0  T
   3    -54.9163964 -0.643700E-02  0.248E-01    0.52       1.0  T
   4    -54.9188934 -0.249698E-02  0.599E-02    0.57       1.0  T
   5    -54.9189789 -0.854715E-04  0.219E-02    0.56       1.0  T
   6    -54.9190026 -0.237087E-04  0.609E-03    0.56       2.7  T
   7    -54.9190032 -0.678082E-06  0.318E-03    0.56       5.2  T
   8    -54.9190034 -0.165680E-06  0.102E-03    0.56      16.2  T
   9    -54.9190034 -0.267114E-07  0.370E-04    0.56      44.4  T
  10    -54.9190034  0.898652E-09  0.228E-04    0.56      72.3  T
     SCC iter.                  ...        0 min,  0.022 sec
     gradient                   ...        0 min,  0.023 sec
 * total energy  :   -54.0460608 Eh     change       -0.9404110E-02 Eh
   gradient norm :     0.1219985 Eh/α   predicted    -0.8018218E-02 ( -14.74%)
   displ. norm   :     0.1614918 α      lambda       -0.1090873E-01
   maximum displ.:     0.0503301 α      in ANC's #2, #39, #38, ...

........................................................................
.............................. CYCLE   18 ..............................
........................................................................
   1    -54.9316094 -0.549316E+02  0.199E-01    0.58       0.0  T
   2    -54.9302275  0.138186E-02  0.222E-01    0.65       1.0  T
   3    -54.9292783  0.949263E-03  0.246E-01    0.55       1.0  T
   4    -54.9322160 -0.293770E-02  0.941E-02    0.61       1.0  T
   5    -54.9324630 -0.247042E-03  0.263E-02    0.60       1.0  T
   6    -54.9324866 -0.235992E-04  0.935E-03    0.60       1.8  T
   7    -54.9324901 -0.346615E-05  0.239E-03    0.60       6.9  T
   8    -54.9324901 -0.342276E-07  0.157E-03    0.60      10.5  T
   9    -54.9324902 -0.724920E-07  0.550E-04    0.60      29.9  T
  10    -54.9324902 -0.284096E-08  0.223E-04    0.60      73.7  T
     SCC iter.                  ...        0 min,  0.022 sec
     gradient                   ...        0 min,  0.023 sec
 * total energy  :   -54.0515961 Eh     change       -0.5535226E-02 Eh
   gradient norm :     0.1645674 Eh/α   predicted    -0.5596575E-02 (   1.11%)
   displ. norm   :     0.0899681 α      lambda       -0.6082367E-02
   maximum displ.:     0.0460648 α      in ANC's #1, #17, #21, ...

........................................................................
.............................. CYCLE   19 ..............................
........................................................................
   1    -54.9322813 -0.549323E+02  0.110E-01    0.63       0.0  T
   2    -54.9294040  0.287736E-02  0.245E-01    0.56       1.0  T
   3    -54.9323516 -0.294761E-02  0.787E-02    0.63       1.0  T
   4    -54.9325972 -0.245646E-03  0.289E-02    0.61       1.0  T
   5    -54.9326059 -0.870386E-05  0.109E-02    0.61       1.5  T
   6    -54.9326091 -0.318830E-05  0.391E-03    0.61       4.2  T
   7    -54.9326100 -0.871601E-06  0.971E-04    0.61      16.9  T
   8    -54.9326100 -0.368357E-08  0.468E-04    0.61      35.1  T
     SCC iter.                  ...        0 min,  0.018 sec
     gradient                   ...        0 min,  0.023 sec
 * total energy  :   -54.0565077 Eh     change       -0.4911592E-02 Eh
   gradient norm :     0.1269282 Eh/α   predicted    -0.3065826E-02 ( -37.58%)
   displ. norm   :     0.1533470 α      lambda       -0.1257650E-01
   maximum displ.:     0.0424360 α      in ANC's #38, #105, #39, ...

........................................................................
.............................. CYCLE   20 ..............................
........................................................................
   1    -54.9376486 -0.549376E+02  0.246E-01    0.71       0.0  T
   2    -54.9213907  0.162579E-01  0.569E-01    0.55       1.0  T
   3    -54.9380081 -0.166174E-01  0.173E-01    0.70       1.0  T
   4    -54.9392068 -0.119880E-02  0.590E-02    0.66       1.0  T
   5    -54.9392306 -0.237659E-04  0.179E-02    0.65       1.0  T
   6    -54.9392407 -0.100874E-04  0.717E-03    0.65       2.3  T
   7    -54.9392431 -0.243843E-05  0.282E-03    0.65       5.8  T
   8    -54.9392434 -0.279263E-06  0.147E-03    0.65      11.2  T
   9    -54.9392435 -0.702870E-07  0.528E-04    0.65      31.1  T
  10    -54.9392435 -0.115217E-07  0.111E-04    0.65     147.7  T
     SCC iter.                  ...        0 min,  0.022 sec
     gradient                   ...        0 min,  0.023 sec
 * total energy  :   -54.0648323 Eh     change       -0.8324630E-02 Eh
   gradient norm :     0.0978479 Eh/α   predicted    -0.6436173E-02 ( -22.69%)
   displ. norm   :     0.1070708 α      lambda       -0.4992806E-02
   maximum displ.:     0.0316280 α      in ANC's #38, #39, #21, ...
 * RMSD in coord.:     0.5957194 α      energy gain  -0.1349848E+02 Eh

generating ANC from model Hessian ...
Using Lindh-Hessian (1995)
 Shifting diagonal of input Hessian by   9.546027916462594E-003
 Lowest  eigenvalues of input Hessian
    0.000000    0.000000    0.000000    0.000000    0.000000    0.000000
    0.010000    0.010167    0.010683    0.012047    0.013416    0.013892
    0.016744    0.017086    0.018152    0.019048    0.019360    0.020866
 Highest eigenvalues
    1.945089    1.980299    2.040975    2.054802    2.163316    4.268176
 

........................................................................
.............................. CYCLE   21 ..............................
........................................................................
   1    -54.9435327 -0.549435E+02  0.125E-01    0.70       0.0  T
   2    -54.9425177  0.101496E-02  0.155E-01    0.64       1.0  T
   3    -54.9431573 -0.639555E-03  0.113E-01    0.71       1.0  T
   4    -54.9436843 -0.527070E-03  0.258E-02    0.68       1.0  T
   5    -54.9436943 -0.999993E-05  0.675E-03    0.68       2.4  T
   6    -54.9436964 -0.204023E-05  0.192E-03    0.68       8.6  T
   7    -54.9436964  0.405954E-09  0.124E-03    0.68      13.2  T
   8    -54.9436964 -0.422360E-07  0.286E-04    0.68      57.5  T
   9    -54.9436964 -0.728818E-09  0.144E-04    0.68     114.0  T
     SCC iter.                  ...        0 min,  0.020 sec
     gradient                   ...        0 min,  0.023 sec
 * total energy  :   -54.0684575 Eh     change       -0.3625162E-02 Eh
   gradient norm :     0.0978993 Eh/α   predicted     0.0000000E+00 (-100.00%)
   displ. norm   :     0.5618057 α      lambda       -0.2541539E-01
   maximum displ.:     0.2558222 α      in ANC's #21, #17, #11, ...

........................................................................
.............................. CYCLE   22 ..............................
........................................................................
   1    -54.9804646 -0.549805E+02  0.311E-01    0.72       0.0  T
   2    -54.9804253  0.392312E-04  0.194E-01    0.74       1.0  T
   3    -54.9766168  0.380858E-02  0.260E-01    0.66       1.0  T
   4    -54.9798866 -0.326987E-02  0.115E-01    0.76       1.0  T
   5    -54.9805732 -0.686541E-03  0.160E-02    0.73       1.0  T
   6    -54.9805820 -0.886737E-05  0.762E-03    0.73       2.2  T
   7    -54.9805840 -0.199998E-05  0.198E-03    0.73       8.3  T
   8    -54.9805841 -0.814266E-07  0.645E-04    0.73      25.5  T
   9    -54.9805841 -0.135399E-07  0.237E-04    0.73      69.4  T
     SCC iter.                  ...        0 min,  0.020 sec
     gradient                   ...        0 min,  0.023 sec
 * total energy  :   -54.0884872 Eh     change       -0.2002972E-01 Eh
   gradient norm :     0.0422113 Eh/α   predicted    -0.1671849E-01 ( -16.53%)
   displ. norm   :     0.6642892 α      lambda       -0.1714844E-01
   maximum displ.:     0.2901399 α      in ANC's #17, #11, #21, ...

........................................................................
.............................. CYCLE   23 ..............................
........................................................................
   1    -55.0052968 -0.550053E+02  0.341E-01    0.81       0.0  T
   2    -55.0052123  0.845192E-04  0.213E-01    0.84       1.0  T
   3    -55.0021390  0.307325E-02  0.253E-01    0.76       1.0  T
   4    -55.0046137 -0.247471E-02  0.130E-01    0.87       1.0  T
   5    -55.0055036 -0.889865E-03  0.153E-02    0.83       1.1  T
   6    -55.0055122 -0.857253E-05  0.682E-03    0.82       2.4  T
   7    -55.0055135 -0.137759E-05  0.198E-03    0.82       8.3  T
   8    -55.0055137 -0.114890E-06  0.664E-04    0.82      24.8  T
   9    -55.0055137 -0.139557E-07  0.229E-04    0.82      71.7  T
     SCC iter.                  ...        0 min,  0.020 sec
     gradient                   ...        0 min,  0.023 sec
 * total energy  :   -54.1016350 Eh     change       -0.1314787E-01 Eh
   gradient norm :     0.0308978 Eh/α   predicted    -0.1235779E-01 (  -6.01%)
   displ. norm   :     0.6652371 α      lambda       -0.1000297E-01
   maximum displ.:     0.2751813 α      in ANC's #11, #17, #8, ...

........................................................................
.............................. CYCLE   24 ..............................
........................................................................
   1    -55.0147383 -0.550147E+02  0.302E-01    0.92       0.0  T
   2    -55.0141610  0.577334E-03  0.208E-01    0.99       1.0  T
   3    -55.0117765  0.238441E-02  0.262E-01    0.87       1.0  T
   4    -55.0149027 -0.312619E-02  0.632E-02    0.96       1.0  T
   5    -55.0150618 -0.159065E-03  0.138E-02    0.95       1.2  T
   6    -55.0150686 -0.677949E-05  0.589E-03    0.95       2.8  T
   7    -55.0150695 -0.914286E-06  0.248E-03    0.95       6.6  T
   8    -55.0150696 -0.591645E-07  0.563E-04    0.95      29.2  T
   9    -55.0150696 -0.952087E-08  0.229E-04    0.95      71.8  T
     SCC iter.                  ...        0 min,  0.021 sec
     gradient                   ...        0 min,  0.023 sec
 * total energy  :   -54.1096111 Eh     change       -0.7976039E-02 Eh
   gradient norm :     0.0313584 Eh/α   predicted    -0.7214827E-02 (  -9.54%)
   displ. norm   :     0.6776327 α      lambda       -0.7438584E-02
   maximum displ.:     0.2626292 α      in ANC's #11, #8, #5, ...

........................................................................
.............................. CYCLE   25 ..............................
........................................................................
   1    -55.0218591 -0.550219E+02  0.298E-01    1.06       0.0  T
   2    -55.0206219  0.123724E-02  0.246E-01    1.17       1.0  T
   3    -55.0218822 -0.126032E-02  0.175E-01    1.06       1.0  T
   4    -55.0227737 -0.891503E-03  0.370E-02    1.10       1.0  T
   5    -55.0228096 -0.359057E-04  0.132E-02    1.10       1.2  T
   6    -55.0228163 -0.670717E-05  0.375E-03    1.10       4.4  T
   7    -55.0228165 -0.178533E-06  0.206E-03    1.10       8.0  T
   8    -55.0228165 -0.619153E-07  0.484E-04    1.10      33.9  T
   9    -55.0228165 -0.320750E-08  0.226E-04    1.10      72.7  T
     SCC iter.                  ...        0 min,  0.021 sec
     gradient                   ...        0 min,  0.023 sec
 * total energy  :   -54.1157201 Eh     change       -0.6108968E-02 Eh
   gradient norm :     0.0292029 Eh/α   predicted    -0.5427145E-02 ( -11.16%)
   displ. norm   :     0.6978547 α      lambda       -0.6216694E-02
   maximum displ.:     0.2482872 α      in ANC's #11, #8, #2, ...

........................................................................
.............................. CYCLE   26 ..............................
........................................................................
   1    -55.0278364 -0.550278E+02  0.314E-01    1.21       0.0  T
   2    -55.0266607  0.117565E-02  0.272E-01    1.31       1.0  T
   3    -55.0290928 -0.243210E-02  0.145E-01    1.23       1.0  T
   4    -55.0294869 -0.394083E-03  0.326E-02    1.25       1.0  T
   5    -55.0294979 -0.109891E-04  0.126E-02    1.25       1.3  T
   6    -55.0295044 -0.646441E-05  0.356E-03    1.25       4.6  T
   7    -55.0295046 -0.206260E-06  0.188E-03    1.25       8.8  T
   8    -55.0295047 -0.689397E-07  0.574E-04    1.25      28.6  T
   9    -55.0295047 -0.432918E-08  0.225E-04    1.25      73.2  T
     SCC iter.                  ...        0 min,  0.020 sec
     gradient                   ...        0 min,  0.023 sec
 * total energy  :   -54.1208875 Eh     change       -0.5167479E-02 Eh
   gradient norm :     0.0224473 Eh/α   predicted    -0.4622100E-02 ( -10.55%)
   displ. norm   :     0.7342621 α      lambda       -0.5446268E-02
   maximum displ.:     0.2822655 α      in ANC's #2, #16, #5, ...

........................................................................
.............................. CYCLE   27 ..............................
........................................................................
   1    -55.0336836 -0.550337E+02  0.323E-01    1.36       0.0  T
   2    -55.0332070  0.476564E-03  0.263E-01    1.40       1.0  T
   3    -55.0352512 -0.204415E-02  0.137E-01    1.36       1.0  T
   4    -55.0355292 -0.277968E-03  0.357E-02    1.37       1.0  T
   5    -55.0355403 -0.111721E-04  0.157E-02    1.37       1.0  T
   6    -55.0355509 -0.106196E-04  0.365E-03    1.37       4.5  T
   7    -55.0355511 -0.195968E-06  0.196E-03    1.37       8.4  T
   8    -55.0355512 -0.826465E-07  0.551E-04    1.37      29.8  T
   9    -55.0355512 -0.406531E-08  0.248E-04    1.37      66.3  T
     SCC iter.                  ...        0 min,  0.020 sec
     gradient                   ...        0 min,  0.023 sec
 * total energy  :   -54.1253224 Eh     change       -0.4434886E-02 Eh
   gradient norm :     0.0247995 Eh/α   predicted    -0.4191285E-02 (  -5.49%)
   displ. norm   :     0.7207494 α      lambda       -0.4946251E-02
   maximum displ.:     0.3316824 α      in ANC's #2, #1, #4, ...

........................................................................
.............................. CYCLE   28 ..............................
........................................................................
   1    -55.0390729 -0.550391E+02  0.307E-01    1.46       0.0  T
   2    -55.0391365 -0.635788E-04  0.228E-01    1.44       1.0  T
   3    -55.0402320 -0.109553E-02  0.131E-01    1.43       1.0  T
   4    -55.0404938 -0.261766E-03  0.331E-02    1.44       1.0  T
   5    -55.0405031 -0.928643E-05  0.144E-02    1.43       1.1  T
   6    -55.0405120 -0.890733E-05  0.363E-03    1.43       4.5  T
   7    -55.0405122 -0.260259E-06  0.179E-03    1.43       9.2  T
   8    -55.0405123 -0.589885E-07  0.536E-04    1.43      30.7  T
   9    -55.0405123 -0.259949E-08  0.233E-04    1.43      70.4  T
     SCC iter.                  ...        0 min,  0.021 sec
     gradient                   ...        0 min,  0.025 sec
 * total energy  :   -54.1291428 Eh     change       -0.3820400E-02 Eh
   gradient norm :     0.0257173 Eh/α   predicted    -0.3757864E-02 (  -1.64%)
   displ. norm   :     0.7196663 α      lambda       -0.4103374E-02
   maximum displ.:     0.3611318 α      in ANC's #2, #1, #4, ...

........................................................................
.............................. CYCLE   29 ..............................
........................................................................
   1    -55.0385099 -0.550385E+02  0.273E-01    1.48       0.0  T
   2    -55.0387280 -0.218085E-03  0.186E-01    1.42       1.0  T
   3    -55.0390761 -0.348099E-03  0.119E-01    1.44       1.0  T
   4    -55.0393203 -0.244225E-03  0.243E-02    1.44       1.0  T
   5    -55.0393299 -0.961478E-05  0.803E-03    1.43       2.0  T
   6    -55.0393324 -0.241176E-05  0.329E-03    1.43       5.0  T
   7    -55.0393326 -0.212063E-06  0.161E-03    1.43      10.2  T
   8    -55.0393326 -0.534527E-07  0.432E-04    1.43      38.0  T
   9    -55.0393326 -0.275271E-08  0.206E-04    1.43      79.7  T
     SCC iter.                  ...        0 min,  0.021 sec
     gradient                   ...        0 min,  0.024 sec
 * total energy  :   -54.1323669 Eh     change       -0.3224122E-02 Eh
   gradient norm :     0.0259778 Eh/α   predicted    -0.3114291E-02 (  -3.41%)
   displ. norm   :     0.6784373 α      lambda       -0.4390668E-02
   maximum displ.:     0.3512753 α      in ANC's #2, #1, #4, ...

........................................................................
.............................. CYCLE   30 ..............................
........................................................................
   1    -55.0503114 -0.550503E+02  0.267E-01    1.45       0.0  T
   2    -55.0504420 -0.130559E-03  0.160E-01    1.39       1.0  T
   3    -55.0502026  0.239385E-03  0.116E-01    1.42       1.0  T
   4    -55.0506179 -0.415359E-03  0.196E-02    1.41       1.0  T
   5    -55.0506273 -0.937921E-05  0.541E-03    1.40       3.0  T
   6    -55.0506280 -0.694137E-06  0.279E-03    1.40       5.9  T
   7    -55.0506282 -0.146813E-06  0.151E-03    1.40      10.9  T
   8    -55.0506282 -0.440803E-07  0.353E-04    1.40      46.5  T
   9    -55.0506282 -0.150143E-08  0.182E-04    1.40      90.3  T
     SCC iter.                  ...        0 min,  0.021 sec
     gradient                   ...        0 min,  0.024 sec
 * total energy  :   -54.1350745 Eh     change       -0.2707520E-02 Eh
   gradient norm :     0.0331947 Eh/α   predicted    -0.3205791E-02 (  18.40%)
   displ. norm   :     0.6252744 α      lambda       -0.3600194E-02
   maximum displ.:     0.3300107 α      in ANC's #2, #1, #4, ...

........................................................................
.............................. CYCLE   31 ..............................
........................................................................
   1    -55.0482231 -0.550482E+02  0.217E-01    1.42       0.0  T
   2    -55.0483292 -0.106060E-03  0.136E-01    1.36       1.0  T
   3    -55.0482151  0.114067E-03  0.922E-02    1.38       1.0  T
   4    -55.0484437 -0.228553E-03  0.141E-02    1.37       1.2  T
   5    -55.0484488 -0.512423E-05  0.470E-03    1.37       3.5  T
   6    -55.0484494 -0.635729E-06  0.222E-03    1.37       7.4  T
   7    -55.0484495 -0.891273E-07  0.125E-03    1.37      13.1  T
   8    -55.0484496 -0.311800E-07  0.372E-04    1.37      44.1  T
   9    -55.0484496 -0.230185E-08  0.182E-04    1.37      90.3  T
     SCC iter.                  ...        0 min,  0.020 sec
     gradient                   ...        0 min,  0.023 sec
 * total energy  :   -54.1376185 Eh     change       -0.2544024E-02 Eh
   gradient norm :     0.0206025 Eh/α   predicted    -0.2503908E-02 (  -1.58%)
   displ. norm   :     0.6223508 α      lambda       -0.2326107E-02
   maximum displ.:     0.3245568 α      in ANC's #1, #2, #4, ...

........................................................................
.............................. CYCLE   32 ..............................
........................................................................
   1    -55.0440204 -0.550440E+02  0.216E-01    1.36       0.0  T
   2    -55.0440703 -0.499580E-04  0.129E-01    1.31       1.0  T
   3    -55.0438538  0.216544E-03  0.895E-02    1.34       1.0  T
   4    -55.0441286 -0.274870E-03  0.130E-02    1.32       1.3  T
   5    -55.0441331 -0.448028E-05  0.663E-03    1.32       2.5  T
   6    -55.0441347 -0.161807E-05  0.168E-03    1.32       9.8  T
   7    -55.0441348 -0.433400E-07  0.878E-04    1.32      18.7  T
   8    -55.0441348 -0.871358E-08  0.308E-04    1.32      53.3  T
     SCC iter.                  ...        0 min,  0.018 sec
     gradient                   ...        0 min,  0.023 sec
 * total energy  :   -54.1393288 Eh     change       -0.1710275E-02 Eh
   gradient norm :     0.0210660 Eh/α   predicted    -0.1613529E-02 (  -5.66%)
   displ. norm   :     0.5970677 α      lambda       -0.2384815E-02
   maximum displ.:     0.3408436 α      in ANC's #1, #2, #4, ...

........................................................................
.............................. CYCLE   33 ..............................
........................................................................
   1    -55.0594781 -0.550595E+02  0.204E-01    1.33       0.0  T
   2    -55.0594859 -0.777762E-05  0.119E-01    1.32       1.0  T
   3    -55.0594742  0.116991E-04  0.206E-02    1.32       1.0  T
   4    -55.0594879 -0.136621E-04  0.434E-03    1.32       3.8  T
   5    -55.0594883 -0.460728E-06  0.230E-03    1.32       7.1  T
   6    -55.0594884 -0.106519E-06  0.115E-03    1.32      14.2  T
   7    -55.0594884 -0.164782E-07  0.465E-04    1.32      35.4  T
   8    -55.0594884 -0.592321E-08  0.126E-04    1.32     130.6  T
     SCC iter.                  ...        0 min,  0.018 sec
     gradient                   ...        0 min,  0.023 sec
 * total energy  :   -54.1406523 Eh     change       -0.1323508E-02 Eh
   gradient norm :     0.0254614 Eh/α   predicted    -0.1617491E-02 (  22.21%)
   displ. norm   :     0.5685064 α      lambda       -0.2507524E-02
   maximum displ.:     0.3126186 α      in ANC's #1, #2, #4, ...

........................................................................
.............................. CYCLE   34 ..............................
........................................................................
   1    -55.0652086 -0.550652E+02  0.205E-01    1.32       0.0  T
   2    -55.0652370 -0.284469E-04  0.119E-01    1.28       1.0  T
   3    -55.0650769  0.160151E-03  0.741E-02    1.29       1.0  T
   4    -55.0652609 -0.184072E-03  0.108E-02    1.29       1.5  T
   5    -55.0652630 -0.205778E-05  0.631E-03    1.28       2.6  T
   6    -55.0652644 -0.144757E-05  0.235E-03    1.28       7.0  T
   7    -55.0652645 -0.853795E-07  0.864E-04    1.29      19.0  T
   8    -55.0652645 -0.127659E-07  0.395E-04    1.29      41.6  T
     SCC iter.                  ...        0 min,  0.018 sec
     gradient                   ...        0 min,  0.023 sec
 * total energy  :   -54.1409934 Eh     change       -0.3411760E-03 Eh
   gradient norm :     0.0353468 Eh/α   predicted    -0.1658983E-02 ( 386.25%)
   displ. norm   :     0.3295178 α      lambda       -0.2557964E-02
   maximum displ.:     0.1731014 α      in ANC's #1, #2, #4, ...

........................................................................
.............................. CYCLE   35 ..............................
........................................................................
   1    -55.0545733 -0.550546E+02  0.133E-01    1.29       0.0  T
   2    -55.0545688  0.450642E-05  0.897E-02    1.27       1.0  T
   3    -55.0544645  0.104273E-03  0.713E-02    1.28       1.0  T
   4    -55.0546310 -0.166497E-03  0.131E-02    1.27       1.3  T
   5    -55.0546365 -0.548429E-05  0.442E-03    1.27       3.7  T
   6    -55.0546370 -0.482695E-06  0.146E-03    1.27      11.3  T
   7    -55.0546370 -0.193244E-07  0.709E-04    1.27      23.2  T
   8    -55.0546370 -0.950603E-08  0.243E-04    1.27      67.6  T
     SCC iter.                  ...        0 min,  0.018 sec
     gradient                   ...        0 min,  0.023 sec
 * total energy  :   -54.1424235 Eh     change       -0.1430043E-02 Eh
   gradient norm :     0.0147186 Eh/α   predicted    -0.1417857E-02 (  -0.85%)
   displ. norm   :     0.3129465 α      lambda       -0.8710847E-03
   maximum displ.:     0.2236277 α      in ANC's #1, #2, #3, ...

........................................................................
.............................. CYCLE   36 ..............................
........................................................................
   1    -55.0612420 -0.550612E+02  0.972E-02    1.27       0.0  T
   2    -55.0612479 -0.591625E-05  0.577E-02    1.29       1.0  T
   3    -55.0612155  0.323298E-04  0.357E-02    1.28       1.0  T
   4    -55.0612544 -0.388166E-04  0.401E-03    1.28       4.1  T
   5    -55.0612547 -0.360865E-06  0.252E-03    1.28       6.5  T
   6    -55.0612550 -0.242600E-06  0.632E-04    1.28      26.0  T
   7    -55.0612550 -0.101982E-08  0.316E-04    1.28      52.0  T
     SCC iter.                  ...        0 min,  0.016 sec
     gradient                   ...        0 min,  0.023 sec
 * total energy  :   -54.1430095 Eh     change       -0.5859653E-03 Eh
   gradient norm :     0.0140548 Eh/α   predicted    -0.4781986E-03 ( -18.39%)
   displ. norm   :     0.5088105 α      lambda       -0.9164425E-03
   maximum displ.:     0.3558869 α      in ANC's #1, #2, #4, ...

........................................................................
.............................. CYCLE   37 ..............................
........................................................................
   1    -55.0634489 -0.550634E+02  0.150E-01    1.29       0.0  T
   2    -55.0634509 -0.195856E-05  0.885E-02    1.29       1.0  T
   3    -55.0634201  0.308385E-04  0.273E-02    1.30       1.0  T
   4    -55.0634531 -0.330413E-04  0.443E-03    1.29       3.7  T
   5    -55.0634538 -0.666333E-06  0.166E-03    1.29       9.9  T
   6    -55.0634538 -0.372921E-07  0.809E-04    1.29      20.3  T
   7    -55.0634538 -0.749649E-08  0.308E-04    1.29      53.4  T
     SCC iter.                  ...        0 min,  0.016 sec
     gradient                   ...        0 min,  0.023 sec
 * total energy  :   -54.1436751 Eh     change       -0.6656817E-03 Eh
   gradient norm :     0.0135511 Eh/α   predicted    -0.5768592E-03 ( -13.34%)
   displ. norm   :     0.4782139 α      lambda       -0.8727083E-03
   maximum displ.:     0.3563752 α      in ANC's #1, #3, #2, ...

........................................................................
.............................. CYCLE   38 ..............................
........................................................................
   1    -55.0690878 -0.550691E+02  0.143E-01    1.29       0.0  T
   2    -55.0690974 -0.960308E-05  0.858E-02    1.32       1.0  T
   3    -55.0689550  0.142486E-03  0.641E-02    1.31       1.0  T
   4    -55.0691140 -0.159015E-03  0.831E-03    1.31       2.0  T
   5    -55.0691163 -0.237734E-05  0.311E-03    1.32       5.3  T
   6    -55.0691167 -0.320557E-06  0.959E-04    1.32      17.1  T
   7    -55.0691167 -0.649594E-08  0.523E-04    1.32      31.4  T
     SCC iter.                  ...        0 min,  0.017 sec
     gradient                   ...        0 min,  0.023 sec
 * total energy  :   -54.1442901 Eh     change       -0.6149403E-03 Eh
   gradient norm :     0.0145131 Eh/α   predicted    -0.5361474E-03 ( -12.81%)
   displ. norm   :     0.6058259 α      lambda       -0.8869512E-03
   maximum displ.:     0.4691654 α      in ANC's #1, #3, #2, ...

........................................................................
.............................. CYCLE   39 ..............................
........................................................................
   1    -55.0624187 -0.550624E+02  0.173E-01    1.31       0.0  T
   2    -55.0624319 -0.132158E-04  0.102E-01    1.32       1.0  T
   3    -55.0623930  0.389090E-04  0.338E-02    1.32       1.0  T
   4    -55.0624363 -0.432472E-04  0.567E-03    1.32       2.9  T
   5    -55.0624371 -0.886851E-06  0.186E-03    1.32       8.9  T
   6    -55.0624372 -0.348249E-07  0.123E-03    1.32      13.4  T
   7    -55.0624372 -0.209736E-07  0.584E-04    1.32      28.2  T
   8    -55.0624372 -0.980644E-08  0.159E-04    1.32     103.7  T
     SCC iter.                  ...        0 min,  0.018 sec
     gradient                   ...        0 min,  0.023 sec
 * total energy  :   -54.1448393 Eh     change       -0.5492512E-03 Eh
   gradient norm :     0.0170494 Eh/α   predicted    -0.6062470E-03 (  10.38%)
   displ. norm   :     0.5087475 α      lambda       -0.9633867E-03
   maximum displ.:     0.3795046 α      in ANC's #1, #3, #5, ...

........................................................................
.............................. CYCLE   40 ..............................
........................................................................
   1    -55.0648553 -0.550649E+02  0.171E-01    1.31       0.0  T
   2    -55.0649621 -0.106757E-03  0.110E-01    1.37       1.0  T
   3    -55.0649665 -0.443939E-05  0.766E-02    1.35       1.0  T
   4    -55.0650842 -0.117737E-03  0.240E-02    1.35       1.0  T
   5    -55.0650968 -0.126027E-04  0.104E-02    1.36       1.6  T
   6    -55.0651014 -0.453636E-05  0.196E-03    1.36       8.4  T
   7    -55.0651014 -0.594157E-07  0.101E-03    1.36      16.3  T
   8    -55.0651014 -0.138669E-07  0.315E-04    1.36      52.2  T
   9    -55.0651014 -0.205405E-08  0.154E-04    1.36     106.5  T
     SCC iter.                  ...        0 min,  0.020 sec
     gradient                   ...        0 min,  0.023 sec
 * total energy  :   -54.1454105 Eh     change       -0.5711712E-03 Eh
   gradient norm :     0.0160259 Eh/α   predicted    -0.6063689E-03 (   6.16%)
   displ. norm   :     0.4646449 α      lambda       -0.9686390E-03
   maximum displ.:     0.3853566 α      in ANC's #1, #3, #18, ...

........................................................................
.............................. CYCLE   41 ..............................
........................................................................
   1    -55.0641772 -0.550642E+02  0.145E-01    1.37       0.0  T
   2    -55.0642083 -0.310424E-04  0.867E-02    1.39       1.0  T
   3    -55.0640963  0.111961E-03  0.665E-02    1.38       1.0  T
   4    -55.0642449 -0.148547E-03  0.143E-02    1.38       1.1  T
   5    -55.0642518 -0.692004E-05  0.484E-03    1.39       3.4  T
   6    -55.0642527 -0.900506E-06  0.126E-03    1.39      13.0  T
   7    -55.0642527 -0.205872E-07  0.643E-04    1.39      25.6  T
   8    -55.0642527 -0.382339E-08  0.232E-04    1.39      70.7  T
     SCC iter.                  ...        0 min,  0.019 sec
     gradient                   ...        0 min,  0.023 sec
 * total energy  :   -54.1460537 Eh     change       -0.6431703E-03 Eh
   gradient norm :     0.0124826 Eh/α   predicted    -0.5888842E-03 (  -8.44%)
   displ. norm   :     0.4687483 α      lambda       -0.7970049E-03
   maximum displ.:     0.3924958 α      in ANC's #1, #3, #12, ...

........................................................................
.............................. CYCLE   42 ..............................
........................................................................
   1    -55.0617383 -0.550617E+02  0.149E-01    1.39       0.0  T
   2    -55.0617710 -0.327697E-04  0.903E-02    1.41       1.0  T
   3    -55.0616710  0.100014E-03  0.647E-02    1.40       1.0  T
   4    -55.0618139 -0.142871E-03  0.120E-02    1.41       1.4  T
   5    -55.0618179 -0.406209E-05  0.474E-03    1.41       3.5  T
   6    -55.0618189 -0.928215E-06  0.122E-03    1.41      13.5  T
   7    -55.0618189 -0.272327E-07  0.602E-04    1.41      27.3  T
   8    -55.0618189 -0.255871E-08  0.180E-04    1.41      91.3  T
     SCC iter.                  ...        0 min,  0.019 sec
     gradient                   ...        0 min,  0.023 sec
 * total energy  :   -54.1466102 Eh     change       -0.5565207E-03 Eh
   gradient norm :     0.0132701 Eh/α   predicted    -0.4860665E-03 ( -12.66%)
   displ. norm   :     0.4838251 α      lambda       -0.8317800E-03
   maximum displ.:     0.4037663 α      in ANC's #1, #5, #3, ...
 * RMSD in coord.:     1.5771766 α      energy gain  -0.8177789E-01 Eh

generating ANC from model Hessian ...
Using Lindh-Hessian (1995)
 Shifting diagonal of input Hessian by   9.651500058417571E-003
 Lowest  eigenvalues of input Hessian
    0.000000    0.000000    0.000000    0.000000    0.000000    0.000000
    0.010000    0.010394    0.010816    0.012271    0.013626    0.014957
    0.016403    0.017836    0.019047    0.019890    0.020566    0.021113
 Highest eigenvalues
    1.946400    2.026271    2.060521    2.152085    2.206282    4.389160
 

........................................................................
.............................. CYCLE   43 ..............................
........................................................................
   1    -55.0617956 -0.550618E+02  0.156E-01    1.41       0.0  T
   2    -55.0618303 -0.346845E-04  0.963E-02    1.43       1.0  T
   3    -55.0617401  0.901316E-04  0.685E-02    1.42       1.0  T
   4    -55.0618919 -0.151753E-03  0.112E-02    1.42       1.5  T
   5    -55.0618949 -0.303039E-05  0.490E-03    1.42       3.4  T
   6    -55.0618959 -0.976881E-06  0.136E-03    1.42      12.1  T
   7    -55.0618959 -0.254002E-07  0.670E-04    1.42      24.5  T
   8    -55.0618959 -0.573257E-08  0.156E-04    1.42     105.5  T
     SCC iter.                  ...        0 min,  0.019 sec
     gradient                   ...        0 min,  0.023 sec
 * total energy  :   -54.1471861 Eh     change       -0.5758974E-03 Eh
   gradient norm :     0.0139732 Eh/α   predicted     0.0000000E+00 (-100.00%)
   displ. norm   :     0.1351646 α      lambda       -0.5347420E-03
   maximum displ.:     0.0830578 α      in ANC's #1, #4, #12, ...

........................................................................
.............................. CYCLE   44 ..............................
........................................................................
   1    -55.0655520 -0.550656E+02  0.554E-02    1.42       0.0  T
   2    -55.0655531 -0.109851E-05  0.330E-02    1.42       1.0  T
   3    -55.0655426  0.105525E-04  0.181E-02    1.43       1.0  T
   4    -55.0655540 -0.114405E-04  0.299E-03    1.42       5.5  T
   5    -55.0655543 -0.329338E-06  0.106E-03    1.42      15.5  T
   6    -55.0655544 -0.278273E-07  0.520E-04    1.42      31.6  T
   7    -55.0655544 -0.243607E-08  0.184E-04    1.42      89.4  T
     SCC iter.                  ...        0 min,  0.017 sec
     gradient                   ...        0 min,  0.023 sec
 * total energy  :   -54.1475940 Eh     change       -0.4078931E-03 Eh
   gradient norm :     0.0059083 Eh/α   predicted    -0.2722743E-03 ( -33.25%)
   displ. norm   :     0.2605816 α      lambda       -0.5343893E-03
   maximum displ.:     0.1743560 α      in ANC's #1, #4, #12, ...

........................................................................
.............................. CYCLE   45 ..............................
........................................................................
   1    -55.0683908 -0.550684E+02  0.796E-02    1.42       0.0  T
   2    -55.0683933 -0.249557E-05  0.471E-02    1.42       1.0  T
   3    -55.0683644  0.289275E-04  0.307E-02    1.42       1.0  T
   4    -55.0683967 -0.323002E-04  0.452E-03    1.42       3.6  T
   5    -55.0683973 -0.638038E-06  0.188E-03    1.42       8.7  T
   6    -55.0683974 -0.106931E-06  0.792E-04    1.42      20.8  T
   7    -55.0683974 -0.383470E-08  0.249E-04    1.42      66.0  T
     SCC iter.                  ...        0 min,  0.016 sec
     gradient                   ...        0 min,  0.023 sec
 * total energy  :   -54.1479747 Eh     change       -0.3807504E-03 Eh
   gradient norm :     0.0061729 Eh/α   predicted    -0.2853672E-03 ( -25.05%)
   displ. norm   :     0.2720773 α      lambda       -0.3309842E-03
   maximum displ.:     0.1955872 α      in ANC's #1, #4, #2, ...

........................................................................
.............................. CYCLE   46 ..............................
........................................................................
   1    -55.0686147 -0.550686E+02  0.716E-02    1.42       0.0  T
   2    -55.0686178 -0.314755E-05  0.422E-02    1.42       1.0  T
   3    -55.0685997  0.181369E-04  0.241E-02    1.42       1.0  T
   4    -55.0686207 -0.210214E-04  0.357E-03    1.42       4.6  T
   5    -55.0686210 -0.288043E-06  0.180E-03    1.42       9.2  T
   6    -55.0686211 -0.100049E-06  0.771E-04    1.42      21.3  T
   7    -55.0686211 -0.566227E-08  0.251E-04    1.42      65.5  T
     SCC iter.                  ...        0 min,  0.016 sec
     gradient                   ...        0 min,  0.023 sec
 * total energy  :   -54.1482397 Eh     change       -0.2649951E-03 Eh
   gradient norm :     0.0076484 Eh/α   predicted    -0.1777435E-03 ( -32.93%)
   displ. norm   :     0.2949520 α      lambda       -0.3203297E-03
   maximum displ.:     0.2173844 α      in ANC's #1, #4, #2, ...

........................................................................
.............................. CYCLE   47 ..............................
........................................................................
   1    -55.0680687 -0.550681E+02  0.718E-02    1.41       0.0  T
   2    -55.0680733 -0.456969E-05  0.427E-02    1.42       1.0  T
   3    -55.0680519  0.214229E-04  0.258E-02    1.42       1.0  T
   4    -55.0680777 -0.258379E-04  0.397E-03    1.42       4.1  T
   5    -55.0680781 -0.368888E-06  0.175E-03    1.42       9.4  T
   6    -55.0680782 -0.907339E-07  0.811E-04    1.42      20.3  T
   7    -55.0680782 -0.756267E-08  0.333E-04    1.42      49.4  T
     SCC iter.                  ...        0 min,  0.017 sec
     gradient                   ...        0 min,  0.023 sec
 * total energy  :   -54.1485109 Eh     change       -0.2711691E-03 Eh
   gradient norm :     0.0062894 Eh/α   predicted    -0.1740997E-03 ( -35.80%)
   displ. norm   :     0.3254437 α      lambda       -0.3326657E-03
   maximum displ.:     0.2429046 α      in ANC's #1, #4, #3, ...

........................................................................
.............................. CYCLE   48 ..............................
........................................................................
   1    -55.0675271 -0.550675E+02  0.715E-02    1.41       0.0  T
   2    -55.0675323 -0.523143E-05  0.429E-02    1.42       1.0  T
   3    -55.0675105  0.218179E-04  0.254E-02    1.41       1.0  T
   4    -55.0675373 -0.267530E-04  0.396E-03    1.42       4.1  T
   5    -55.0675377 -0.405968E-06  0.135E-03    1.42      12.1  T
   6    -55.0675377 -0.356647E-07  0.789E-04    1.42      20.8  T
   7    -55.0675377 -0.799814E-08  0.398E-04    1.42      41.3  T
     SCC iter.                  ...        0 min,  0.017 sec
     gradient                   ...        0 min,  0.023 sec
 * total energy  :   -54.1487933 Eh     change       -0.2823897E-03 Eh
   gradient norm :     0.0042473 Eh/α   predicted    -0.1839502E-03 ( -34.86%)
   displ. norm   :     0.3473490 α      lambda       -0.3100573E-03
   maximum displ.:     0.2595205 α      in ANC's #1, #4, #3, ...

........................................................................
.............................. CYCLE   49 ..............................
........................................................................
   1    -55.0673540 -0.550674E+02  0.709E-02    1.41       0.0  T
   2    -55.0673588 -0.477997E-05  0.427E-02    1.42       1.0  T
   3    -55.0673346  0.241536E-04  0.261E-02    1.41       1.0  T
   4    -55.0673637 -0.291423E-04  0.440E-03    1.42       3.7  T
   5    -55.0673643 -0.512292E-06  0.173E-03    1.42       9.5  T
   6    -55.0673644 -0.958037E-07  0.740E-04    1.42      22.2  T
   7    -55.0673644 -0.603342E-08  0.373E-04    1.42      44.1  T
     SCC iter.                  ...        0 min,  0.016 sec
     gradient                   ...        0 min,  0.023 sec
 * total energy  :   -54.1490613 Eh     change       -0.2680136E-03 Eh
   gradient norm :     0.0050791 Eh/α   predicted    -0.1737416E-03 ( -35.17%)
   displ. norm   :     0.3500061 α      lambda       -0.2869453E-03
   maximum displ.:     0.2614537 α      in ANC's #1, #4, #3, ...

........................................................................
.............................. CYCLE   50 ..............................
........................................................................
   1    -55.0675701 -0.550676E+02  0.677E-02    1.41       0.0  T
   2    -55.0675734 -0.338541E-05  0.408E-02    1.42       1.0  T
   3    -55.0675504  0.230166E-04  0.244E-02    1.42       1.0  T
   4    -55.0675770 -0.266208E-04  0.414E-03    1.42       4.0  T
   5    -55.0675775 -0.478040E-06  0.164E-03    1.42      10.0  T
   6    -55.0675776 -0.937454E-07  0.629E-04    1.42      26.1  T
   7    -55.0675776 -0.319421E-08  0.332E-04    1.42      49.5  T
     SCC iter.                  ...        0 min,  0.016 sec
     gradient                   ...        0 min,  0.023 sec
 * total energy  :   -54.1493164 Eh     change       -0.2551344E-03 Eh
   gradient norm :     0.0064974 Eh/α   predicted    -0.1610493E-03 ( -36.88%)
   displ. norm   :     0.3543097 α      lambda       -0.2855958E-03
   maximum displ.:     0.2658678 α      in ANC's #1, #3, #4, ...

........................................................................
.............................. CYCLE   51 ..............................
........................................................................
   1    -55.0682354 -0.550682E+02  0.676E-02    1.42       0.0  T
   2    -55.0682376 -0.219329E-05  0.407E-02    1.42       1.0  T
   3    -55.0682138  0.238084E-04  0.241E-02    1.42       1.0  T
   4    -55.0682403 -0.265080E-04  0.379E-03    1.42       4.3  T
   5    -55.0682408 -0.438835E-06  0.149E-03    1.42      11.0  T
   6    -55.0682408 -0.781068E-07  0.586E-04    1.42      28.0  T
   7    -55.0682408 -0.164894E-08  0.303E-04    1.42      54.3  T
     SCC iter.                  ...        0 min,  0.016 sec
     gradient                   ...        0 min,  0.023 sec
 * total energy  :   -54.1495742 Eh     change       -0.2577638E-03 Eh
   gradient norm :     0.0064899 Eh/α   predicted    -0.1607257E-03 ( -37.65%)
   displ. norm   :     0.3696149 α      lambda       -0.2936977E-03
   maximum displ.:     0.2810833 α      in ANC's #1, #3, #2, ...

........................................................................
.............................. CYCLE   52 ..............................
........................................................................
   1    -55.0689610 -0.550690E+02  0.703E-02    1.42       0.0  T
   2    -55.0689622 -0.113246E-05  0.419E-02    1.42       1.0  T
   3    -55.0689425  0.196629E-04  0.215E-02    1.42       1.0  T
   4    -55.0689637 -0.212027E-04  0.282E-03    1.42       5.8  T
   5    -55.0689640 -0.241166E-06  0.116E-03    1.42      14.2  T
   6    -55.0689640 -0.372778E-07  0.569E-04    1.42      28.9  T
   7    -55.0689640 -0.171705E-08  0.241E-04    1.42      68.1  T
     SCC iter.                  ...        0 min,  0.016 sec
     gradient                   ...        0 min,  0.023 sec
 * total energy  :   -54.1498393 Eh     change       -0.2651096E-03 Eh
   gradient norm :     0.0052589 Eh/α   predicted    -0.1669122E-03 ( -37.04%)
   displ. norm   :     0.3779138 α      lambda       -0.2846289E-03
   maximum displ.:     0.2921069 α      in ANC's #1, #3, #2, ...

........................................................................
.............................. CYCLE   53 ..............................
........................................................................
   1    -55.0695625 -0.550696E+02  0.732E-02    1.42       0.0  T
   2    -55.0695628 -0.311660E-06  0.433E-02    1.42       1.0  T
   3    -55.0695506  0.122628E-04  0.170E-02    1.43       1.0  T
   4    -55.0695637 -0.131373E-04  0.162E-03    1.42      10.2  T
   5    -55.0695637 -0.475063E-07  0.803E-04    1.42      20.5  T
   6    -55.0695638 -0.122835E-08  0.432E-04    1.42      38.0  T
     SCC iter.                  ...        0 min,  0.014 sec
     gradient                   ...        0 min,  0.023 sec
 * total energy  :   -54.1500952 Eh     change       -0.2558960E-03 Eh
   gradient norm :     0.0034438 Eh/α   predicted    -0.1626399E-03 ( -36.44%)
   displ. norm   :     0.3641679 α      lambda       -0.2504380E-03
   maximum displ.:     0.2857053 α      in ANC's #1, #3, #2, ...

........................................................................
.............................. CYCLE   54 ..............................
........................................................................
   1    -55.0698802 -0.550699E+02  0.726E-02    1.43       0.0  T
   2    -55.0698806 -0.394485E-06  0.429E-02    1.43       1.0  T
   3    -55.0698670  0.135654E-04  0.178E-02    1.43       1.0  T
   4    -55.0698818 -0.147664E-04  0.201E-03    1.43       8.2  T
[...]
C9-C4-C5=119.98                C6-C5-C4=118.67                H27-C5-C4=121.05               H27-C5-C6=120.28               
C7-C6-C5=120.87                H28-C6-C5=119.55               H28-C6-C7=119.58               C8-C7-C6=121.11                
H29-C7-C6=119.59               H29-C7-C8=119.30               C9-C8-C7=117.50                H30-C8-C7=121.24               
H30-C8-C9=121.26               C8-C9-C4=121.87                N10-C9-C4=108.82               N10-C9-C8=129.31               
C11-N10-C9=112.40              H31-N10-C9=124.31              H31-N10-C11=123.19             
 
 selected dihedral angles (degree)
 ---------------------------------
C3-C2-C1-H21=183.45           C3-C2-C1-H22= 63.20           C3-C2-C1-H23=303.32           C4-C2-C1-H21=305.59           
C4-C2-C1-H22=185.34           C4-C2-C1-H23= 65.46           C11-C2-C1-H21= 57.12          C11-C2-C1-H22=296.87          
C11-C2-C1-H23=176.99          H24-C3-C2-C1=316.29           H24-C3-C2-C4=193.67           H24-C3-C2-C11= 80.52          
H25-C3-C2-C1= 76.20           H25-C3-C2-C4=313.58           H25-C3-C2-C11=200.43          H26-C3-C2-C1=196.30           
H26-C3-C2-C4= 73.68           H26-C3-C2-C11=320.53          C5-C4-C2-C1=297.43            C5-C4-C2-C3= 59.66            
C5-C4-C2-C11=180.49           C9-C4-C2-C1=117.86            C9-C4-C2-C3=240.09            C9-C4-C2-C11=  0.92           
C6-C5-C4-C2=180.61            C6-C5-C4-C9=  0.14            H27-C5-C4-C2=  0.69           H27-C5-C4-C9=180.22           
C7-C6-C5-C4=  0.21            C7-C6-C5-H27=180.13           H28-C6-C5-C4=180.08           H28-C6-C5-H27=  0.00          
C8-C7-C6-C5=359.65            C8-C7-C6-H28=179.79           H29-C7-C6-C5=179.67           H29-C7-C6-H28=359.81          
C9-C8-C7-C6=  0.12            C9-C8-C7-H29=180.10           H30-C8-C7-C6=179.96           H30-C8-C7-H29=359.94          
C8-C9-C4-C2=179.25            C8-C9-C4-C5=359.62            N10-C9-C4-C2=358.86           N10-C9-C4-C5=179.23           
C4-C9-C8-C7=  0.24            C4-C9-C8-H30=180.40           N10-C9-C8-C7=180.72           N10-C9-C8-H30=  0.88          
C11-N10-C9-C4=  0.91          C11-N10-C9-C8=180.47          H31-N10-C9-C4=177.32          H31-N10-C9-C8=356.89          
           -------------------------------------------------
          |                Final Singlepoint                |
           -------------------------------------------------

          ...................................................
          :                      SETUP                      :
          :.................................................:
          :  # basis functions                  97          :
          :  # atomic orbitals                  97          :
          :  # shells                           57          :
          :  # electrons                       100          :
          :  max. iterations                   250          :
          :  Hamiltonian                  GFN2-xTB          :
          :  restarted?                      false          :
          :  GBSA solvation                  false          :
          :  PC potential                    false          :
          :  electronic temp.          300.0000000     K    :
          :  accuracy                    1.0000000          :
          :  -> integral cutoff          0.2500000E+02      :
          :  -> integral neglect         0.1000000E-07      :
          :  -> SCF convergence          0.1000000E-05 Eh   :
          :  -> wf. convergence          0.1000000E-03 e    :
          :  Broyden damping             0.4000000          :
          ...................................................

 iter      E             dE          RMSdq      gap      omega  full diag
   1    -55.0718495 -0.550718E+02  0.987E-05    1.44       0.0  T
   2    -55.0718495  0.738964E-12  0.689E-05    1.44     238.6  T
   3    -55.0718495 -0.401386E-10  0.501E-05    1.44     328.4  T

   *** convergence criteria satisfied after 3 iterations ***

         #    Occupation            Energy/Eh            Energy/eV
      -------------------------------------------------------------
         1        2.0000           -0.6856066             -18.6563
       ...           ...                  ...                  ...
        44        2.0000           -0.4243600             -11.5474
        45        2.0000           -0.4196345             -11.4188
        46        2.0000           -0.4076669             -11.0932
        47        2.0000           -0.4061145             -11.0509
        48        2.0000           -0.3768511             -10.2546
        49        2.0000           -0.3624211              -9.8620
        50        2.0000           -0.3487238              -9.4893 (HOMO)
        51                         -0.2957531              -8.0479 (LUMO)
        52                         -0.2292000              -6.2368
        53                         -0.2272093              -6.1827
        54                         -0.2027207              -5.5163
        55                         -0.1937636              -5.2726
       ...                                ...                  ...
        97                          0.7391045              20.1121
      -------------------------------------------------------------
                  HL-Gap            0.0529707 Eh            1.4414 eV
             Fermi-level           -0.3222384 Eh           -8.7686 eV

 SCC (total)                   0 d,  0 h,  0 min,  0.041 sec
 SCC setup                      ...        0 min,  0.000 sec (  0.571%)
 Dispersion                     ...        0 min,  0.000 sec (  0.647%)
 classical contributions        ...        0 min,  0.000 sec (  0.199%)
 integral evaluation            ...        0 min,  0.009 sec ( 20.975%)
 iterations                     ...        0 min,  0.008 sec ( 19.970%)
 molecular gradient             ...        0 min,  0.023 sec ( 56.878%)
 printout                       ...        0 min,  0.000 sec (  0.664%)

         :::::::::::::::::::::::::::::::::::::::::::::::::::::
         ::                     SUMMARY                     ::
         :::::::::::::::::::::::::::::::::::::::::::::::::::::
         :: total energy             -54.151398179572 Eh    ::
         :: gradient norm              0.000186086280 Eh/a0 ::
         :: HOMO-LUMO gap              1.441406608075 eV    ::
         ::.................................................::
         :: SCC energy               -55.071849501952 Eh    ::
         :: -> isotropic ES            0.041223461119 Eh    ::
         :: -> anisotropic ES          0.007869100648 Eh    ::
         :: -> anisotropic XC          0.027878124992 Eh    ::
         :: -> dispersion             -0.042621652563 Eh    ::
         :: repulsion energy           0.920015828087 Eh    ::
         :: add. restraining           0.000006976658 Eh    ::
         :: total charge              -0.000000000000 e     ::
         :::::::::::::::::::::::::::::::::::::::::::::::::::::

           -------------------------------------------------
          |                Property Printout                |
           -------------------------------------------------

    * Orbital Energies and Occupations

         #    Occupation            Energy/Eh            Energy/eV
      -------------------------------------------------------------
         1        2.0000           -0.6856066             -18.6563
       ...           ...                  ...                  ...
        38        2.0000           -0.4507078             -12.2644
        39        2.0000           -0.4477408             -12.1836
        40        2.0000           -0.4447254             -12.1016
        41        2.0000           -0.4365267             -11.8785
        42        2.0000           -0.4350235             -11.8376
        43        2.0000           -0.4291723             -11.6784
        44        2.0000           -0.4243600             -11.5474
        45        2.0000           -0.4196345             -11.4188
        46        2.0000           -0.4076669             -11.0932
        47        2.0000           -0.4061145             -11.0509
        48        2.0000           -0.3768511             -10.2546
        49        2.0000           -0.3624211              -9.8620
        50        2.0000           -0.3487238              -9.4893 (HOMO)
        51                         -0.2957531              -8.0479 (LUMO)
        52                         -0.2292000              -6.2368
        53                         -0.2272093              -6.1827
        54                         -0.2027207              -5.5163
        55                         -0.1937636              -5.2726
        56                         -0.1706601              -4.6439
        57                         -0.0919117              -2.5010
        58                         -0.0809974              -2.2041
        59                          0.0078604               0.2139
        60                          0.0482685               1.3135
        61                          0.0670871               1.8255
       ...                                ...                  ...
        97                          0.7391045              20.1121
      -------------------------------------------------------------
                  HL-Gap            0.0529707 Eh            1.4414 eV
             Fermi-level           -0.3222384 Eh           -8.7686 eV

     #   Z          covCN         q      C6AA      α(0)
     1   6 C        3.759    -0.102    22.507     6.764
     2   6 C        3.939     0.023    20.125     6.375
     3   6 C        3.758    -0.101    22.474     6.759
     4   6 C        3.050    -0.012    28.268     8.720
     5   6 C        2.917    -0.032    28.790     8.799
     6   6 C        2.922    -0.041    29.009     8.832
     7   6 C        2.925    -0.031    28.768     8.796
     8   6 C        2.912    -0.056    29.381     8.888
     9   6 C        3.002     0.062    26.596     8.460
    10   7 N        2.746    -0.116    23.528     7.204
    11   6 C        2.971     0.075    26.310     8.414
    12   6 C        2.896    -0.063    29.571     8.916
    13   6 C        2.906     0.001    28.001     8.677
    14   6 C        2.955    -0.024    28.607     8.773
    15   6 C        2.922    -0.036    28.902     8.816
    16   6 C        2.910    -0.041    29.014     8.833
    17   6 C        2.909    -0.022    28.557     8.763
    18   6 C        2.907    -0.066    29.641     8.927
    19   6 C        2.826     0.221    23.359     7.920
    20   8 O        0.858    -0.432    22.331     6.336
    21   1 H        0.925     0.036     2.498     2.472
    22   1 H        0.925     0.045     2.382     2.413
    23   1 H        0.925     0.049     2.332     2.388
    24   1 H        0.925     0.047     2.354     2.400
    25   1 H        0.925     0.044     2.402     2.424
    26   1 H        0.925     0.059     2.212     2.326
    27   1 H        0.926     0.034     2.531     2.488
    28   1 H        0.926     0.034     2.530     2.487
    29   1 H        0.926     0.035     2.510     2.478
    30   1 H        0.926     0.031     2.572     2.508
    31   1 H        0.860     0.166     1.297     1.784
    32   1 H        0.925     0.041     2.438     2.442
    33   1 H        0.924     0.041     2.436     2.441
    34   1 H        0.925     0.026     2.651     2.546
    35   1 H        0.926     0.028     2.612     2.527
    36   1 H        0.925     0.031     2.567     2.506
    37   1 H        0.926     0.045     2.382     2.413

 Mol. C6AA /au·bohr⁶  :      16697.956800
 Mol. C8AA /au·bohr⁸  :     406632.165568
 Mol. α(0) /au        :        205.010970


Wiberg/Mayer (AO) data.
largest (>0.10) Wiberg bond orders for each atom

 ---------------------------------------------------------------------------
     #   Z sym  total        # sym  WBO       # sym  WBO       # sym  WBO
 ---------------------------------------------------------------------------
     1   6 C    3.993 --    21 H    0.987    23 H    0.983    22 H    0.981
                             2 C    0.973
     2   6 C    3.990 --     4 C    0.987    11 C    0.978     1 C    0.973
                             3 C    0.972
     3   6 C    3.991 --    26 H    0.983    25 H    0.983    24 H    0.975
                             2 C    0.972
     4   6 C    3.981 --     5 C    1.456     9 C    1.307     2 C    0.987
                             7 C    0.103
     5   6 C    3.991 --     4 C    1.456     6 C    1.410    27 H    0.968
                             8 C    0.100
     6   6 C    3.969 --     7 C    1.446     5 C    1.410    28 H    0.972
     7   6 C    3.990 --     6 C    1.446     8 C    1.434    29 H    0.971
                             4 C    0.103
     8   6 C    3.973 --     7 C    1.434     9 C    1.377    30 H    0.969
                             5 C    0.100
     9   6 C    3.962 --     8 C    1.377     4 C    1.307    10 N    1.114
    10   7 N    3.508 --    11 C    1.189     9 C    1.114    31 H    0.940
    11   6 C    3.940 --    12 C    1.576    10 N    1.189     2 C    0.978
    12   6 C    3.965 --    11 C    1.576    13 C    1.239    32 H    0.940
    13   6 C    3.978 --    14 C    1.505    12 C    1.239    33 H    0.950
    14   6 C    3.977 --    13 C    1.505    15 C    1.200    19 C    1.044
    15   6 C    3.985 --    16 C    1.641    14 C    1.200    34 H    0.966
                            18 C    0.114
    16   6 C    3.962 --    15 C    1.641    17 C    1.218    35 H    0.971
    17   6 C    3.977 --    18 C    1.679    16 C    1.218    36 H    0.969
    18   6 C    3.982 --    17 C    1.679    19 C    1.111    37 H    0.967
                            15 C    0.114
    19   6 C    3.949 --    20 O    1.668    18 C    1.111    14 C    1.044
    20   8 O    2.000 --    19 C    1.668
    21   1 H    0.999 --     1 C    0.987
    22   1 H    0.997 --     1 C    0.981
    23   1 H    0.998 --     1 C    0.983
    24   1 H    0.997 --     3 C    0.975
    25   1 H    0.998 --     3 C    0.983
    26   1 H    0.997 --     3 C    0.983
    27   1 H    0.998 --     5 C    0.968
    28   1 H    0.998 --     6 C    0.972
    29   1 H    0.998 --     7 C    0.971
    30   1 H    0.999 --     8 C    0.969
    31   1 H    0.972 --    10 N    0.940
    32   1 H    0.993 --    12 C    0.940
    33   1 H    0.996 --    13 C    0.950
    34   1 H    0.999 --    15 C    0.966
    35   1 H    0.998 --    16 C    0.971
    36   1 H    0.999 --    17 C    0.969
    37   1 H    0.997 --    18 C    0.967
 ---------------------------------------------------------------------------

Topologies differ in total number of bonds
Writing topology from bond orders to xtbtopo.mol

molecular dipole:
                 x           y           z       tot (Debye)
 q only:       -1.296      -1.007       0.231
   full:       -1.149      -1.165       0.395       4.278
molecular quadrupole (traceless):
                xx          xy          yy          xz          yz          zz
 q only:       -3.865      -8.440      -4.646      -4.808      -1.009       8.511
  q+dip:       -4.007     -12.502      -8.768      -7.924      -1.011      12.776
   full:       -3.960     -10.357      -7.395      -6.171      -1.087      11.355

           -------------------------------------------------
          |                Geometry Summary                 |
           -------------------------------------------------

      molecular mass/u    :      263.3343471
   center of mass at/Å    :        0.1030946       0.1512712       0.1590083
  moments of inertia/u·Å² :        0.5557369E+03   0.2652445E+04   0.2752482E+04
rotational constants/cm⁻¹ :        0.3033384E-01   0.6355506E-02   0.6124521E-02

 * 35 selected distances

     #   Z          #   Z                                           value/Å
     1   6 C        2   6 C                                       1.5337834 (max)
     2   6 C        3   6 C                                       1.5318015
     4   6 C        5   6 C                                       1.3758109
     5   6 C        6   6 C                                       1.3907136
     6   6 C        7   6 C                                       1.3853743
     7   6 C        8   6 C                                       1.3871283
     4   6 C        9   6 C                                       1.3979400
     8   6 C        9   6 C                                       1.3827627
     9   6 C       10   7 N                                       1.3771782
    10   7 N       11   6 C                                       1.3678489
    11   6 C       12   6 C                                       1.3576034
    12   6 C       13   6 C                                       1.4205784
    13   6 C       14   6 C                                       1.3778107
    14   6 C       15   6 C                                       1.4311690
    15   6 C       16   6 C                                       1.3535583
    16   6 C       17   6 C                                       1.4208325
    17   6 C       18   6 C                                       1.3497039
    19   6 C       20   8 O                                       1.2292379
     1   6 C       21   1 H                                       1.0884113
     1   6 C       22   1 H                                       1.0873633
     1   6 C       23   1 H                                       1.0869881
     3   6 C       24   1 H                                       1.0864305
     3   6 C       25   1 H                                       1.0877451
     3   6 C       26   1 H                                       1.0866664
     5   6 C       27   1 H                                       1.0797840
     6   6 C       28   1 H                                       1.0793834
     7   6 C       29   1 H                                       1.0797598
     8   6 C       30   1 H                                       1.0794059
    10   7 N       31   1 H                                       1.0066455 (min)
    12   6 C       32   1 H                                       1.0876545
    13   6 C       33   1 H                                       1.0902806
    15   6 C       34   1 H                                       1.0825732
    16   6 C       35   1 H                                       1.0795958
    17   6 C       36   1 H                                       1.0814171
    18   6 C       37   1 H                                       1.0802246

 * 5 distinct bonds (by element types)

   Z      Z             #   av. dist./Å        max./Å        min./Å
   1 H    6 C          16     1.0839802     1.0902806     1.0793834
   6 C    6 C          15     1.4064381     1.5337834     1.3497039
   1 H    7 N           1     1.0066455     1.0066455     1.0066455
   6 C    7 N           2     1.3725136     1.3771782     1.3678489
   6 C    8 O           1     1.2292379     1.2292379     1.2292379


optimized geometry written to: xtbopt.xyz


           -------------------------------------------------
          | TOTAL ENERGY              -54.151398179572 Eh   |
          | GRADIENT NORM               0.000186086280 Eh/α |
          | HOMO-LUMO GAP               1.441406608075 eV   |
           -------------------------------------------------

------------------------------------------------------------------------
 * finished run on 2026/05/06 at 06:43:15.213     
------------------------------------------------------------------------
 total:
 * wall-time:     0 d,  0 h,  0 min,  4.610 sec
 *  cpu-time:     0 d,  0 h,  0 min,  4.156 sec
 * ratio c/w:     0.902 speedup
 SCF:
 * wall-time:     0 d,  0 h,  0 min,  0.065 sec
 *  cpu-time:     0 d,  0 h,  0 min,  0.065 sec
 * ratio c/w:     0.999 speedup
 ANC optimizer:
 * wall-time:     0 d,  0 h,  0 min,  4.209 sec
 *  cpu-time:     0 d,  0 h,  0 min,  4.054 sec
 * ratio c/w:     0.963 speedup

