  37
  energy= -54.1513981796
 C         -0.9276064541       -1.6161195768       -0.4780904371
 C         -0.9117855916       -0.1418927470       -0.0551295634
 C         -0.1675337768        0.6999199814       -1.0962136688
 C         -2.3179505647        0.3817184885        0.1260771248
 C         -3.3500403835        0.5185022257       -0.7733315818
 C         -4.5557434940        1.0507260230       -0.3293700129
 C         -4.7176887554        1.4409128528        0.9900198668
 C         -3.6871273267        1.3065021778        1.9087153833
 C         -2.4946797061        0.7718343385        1.4567958051
 N         -1.3325014720        0.5202083457        2.1515228612
 C         -0.3535825447       -0.0082231001        1.3556031033
 C          0.8101197348       -0.4704865943        1.8801945070
 C          1.9342732897       -1.0721039957        1.2537938112
 C          2.7133881955       -0.6770874019        0.1882874760
 C          3.5698733042       -1.6564377623       -0.4079929502
 C          4.3443868515       -1.3881510914       -1.4851516608
 C          4.3557004903       -0.0798526568       -2.0392200704
 C          3.6498744573        0.9171122213       -1.4651374513
 C          2.8513737482        0.7270261917       -0.2648280017
 O          2.4193341277        1.6894931853        0.3660639411
 H         -1.5069258744       -2.2101688486        0.2262769196
 H          0.0874536522       -2.0044487959       -0.5129049510
 H         -1.3755435477       -1.7123393679       -1.4638069306
 H          0.7442628807        0.1994530371       -1.4100459866
 H         -0.8022215401        0.8495382938       -1.9668312559
 H          0.0990954586        1.6695143008       -0.6843406069
 H         -3.2336212293        0.2194551747       -1.8043266194
 H         -5.3753481692        1.1632206901       -1.0226675513
 H         -5.6611000592        1.8565167229        1.3111577387
 H         -3.8107474849        1.6103225930        2.9370772283
 H         -1.1905330837        0.7486863269        3.1215629937
 H          0.8389135791       -0.5227301783        2.9662118273
 H          2.2574280269       -1.9884218884        1.7484088124
 H          3.5303227700       -2.6606427693       -0.0055348006
 H          4.9468912312       -2.1598908110       -1.9400507423
 H          4.9522350504        0.1062934460       -2.9218065529
 H          3.6673542097        1.9220409585       -1.8609880037
