37
 energy: -54.151398179572 gnorm: 0.000186086280 xtb: 6.5.1 (579679a)
C           -0.92760645414652       -1.61611957681190       -0.47809043709836
C           -0.91178559157672       -0.14189274697395       -0.05512956341382
C           -0.16753377677698        0.69991998144462       -1.09621366884588
C           -2.31795056470008        0.38171848848644        0.12607712477269
C           -3.35004038354854        0.51850222568659       -0.77333158176797
C           -4.55574349403663        1.05072602302899       -0.32937001286180
C           -4.71768875542422        1.44091285278925        0.99001986681123
C           -3.68712732673292        1.30650217781278        1.90871538326213
C           -2.49467970605855        0.77183433846227        1.45679580513278
N           -1.33250147201863        0.52020834566717        2.15152286115117
C           -0.35358254470795       -0.00822310008811        1.35560310331709
C            0.81011973478227       -0.47048659425722        1.88019450695470
C            1.93427328969661       -1.07210399566911        1.25379381116562
C            2.71338819554812       -0.67708740190736        0.18828747599780
C            3.56987330423636       -1.65643776231301       -0.40799295022685
C            4.34438685148367       -1.38815109139378       -1.48515166080102
C            4.35570049027766       -0.07985265678078       -2.03922007044081
C            3.64987445732205        0.91711222133922       -1.46513745125132
C            2.85137374823498        0.72702619172994       -0.26482800167964
O            2.41933412774429        1.68949318525928        0.36606394114641
H           -1.50692587441761       -2.21016884856072        0.22627691962030
H            0.08745365222315       -2.00444879587638       -0.51290495098875
H           -1.37554354771258       -1.71233936789365       -1.46380693059331
H            0.74426288074256        0.19945303705223       -1.41004598656570
H           -0.80222154009849        0.84953829380030       -1.96683125591463
H            0.09909545855817        1.66951430080948       -0.68434060687711
H           -3.23362122928533        0.21945517469215       -1.80432661944818
H           -5.37534816921281        1.16322069006921       -1.02266755127352
H           -5.66110005916150        1.85651672294701        1.31115773869387
H           -3.81074748488047        1.61032259299150        2.93707722825362
H           -1.19053308369710        0.74868632685539        3.12156299369024
H            0.83891357914868       -0.52273017834129        2.96621182727573
H            2.25742802690349       -1.98842188836363        1.74840881235743
H            3.53032276999305       -2.66064276931463       -0.00553480064022
H            4.94689123116815       -2.15989081097383       -1.94005074228474
H            4.95223505042772        0.10629344601896       -2.92180655288715
H            3.66735420971560        1.92204095854307       -1.86098800372631
